Compiler and run-time data
===========================================================================
RASPA 2.0
Compiled as a 64-bits application
Compiler: gcc Intel(R) C++ gcc 4.8.3 mode
Compile Date = Jul 11 2016, Compile Time = 14:38:58

Mon Aug 22 15:17:44 2016
Simulation started on Monday, August 22.
The start time was 03:17 PM.

Hostname:    The start time was 03:17 PM.
OS type:     The start time was 03:17 PM.
OS release:  The start time was 03:17 PM.
OS version:  The start time was 03:17 PM.

Simulation
===========================================================================
Dimensions: 3
Random number seed: 1471875463
RASPA directory set to: /home/rgowers/RASPA/
String appended to output-files: 
Number of cycles: 67312
Number of initializing cycles: 6731
Number of equilibration cycles: 0
Print every: 673
Triclinic boundary condition applied
Timestep: 0.000500
Initialization Ensemble: NVE (constant number of particles N, constant volume V, constant energy E)
Production run ensemble: NVE (constant number of particles N, constant volume V, constant energy E)
	Degrees of freedom:                        0
	Translational Degrees of freedom:          0
	Rotational Degrees of freedom:             0
	Degrees of freedom Framework:              0


Mutual consistent basic set of units:
======================================
Unit of temperature: Kelvin
Unit of length:      1e-10 [m]
Unit of time:        1e-12 [s]
Unit of mass:        1.66054e-27 [kg]
Unit of charge:      1.60218e-19 [C/particle]

Derived units and their conversion factors:
===========================================
Unit of energy:              1.66054e-23 [J]
Unit of force:               1.66054e-13 [N]
Unit of pressure:            1.66054e+07 [Pa]
Unit of velocity:            100 [m/s]
Unit of acceleration:        1e-08 [m^2/s]
Unit of diffusion:           1e-08 [m^2/s]
Unit of dipole moment:       1.60218e-29 [C.m]
Unit of electric potential:  0.000103643 [V]
Unit of electric field:      1.03643e+06 [V]
Unit of polarizability:      1.54587e-35 [-]
Unit of Coulomb potential:   167101.0800066561  [K]
Unit of dielectric constant: 0.0000154587       [s^2 C^2/(kg m^3)]
Unit of wave vectors:        5.3088374589       [cm^1]
Boltzmann constant:          0.8314464919       [-]

Internal conversion factors:
===========================================
Energy to Kelvin:                                    1.2027242847
FH correction factor                                 2.0211930949
Heat capacity conversion factor:                    10.0000088723
From Debye to internal units:                        4.8032067991
Isothermal compressibility conversion factor:        0.0000000602

Energy conversion factors:
===========================================
From mdyne/A to kcal/mol/A^2:           143.933
From mdyne/A to kj/mol/A^2:             602.214
From mdyne/A to K/A^2:                  72429.7
From mdyne A/rad^2 to kcal/mol/deg^2:   0.0438444


Properties computed
===========================================================================
Movies: yes
	Movie snapshots are appended to file every 673 cycles
Radial Distribution Function: no
Number of molecules GCMC histogram: no
Histogram of the molecule positions: no
Free energy profiles: no
Pore Size Distribution Function: no
End-to-end distance: no
Histogram of the energy of the system: no
Compute thermodynamic factors: no
Framework spacing histograms: no
Residence times histograms: no
Distance histograms: no
Bend Angle histograms: no
Dihedral angle histograms: no
Angle between planes histograms: no
Molecule properties: no
Infra-red spectra: no
Mean-squared displacement using modified order-N algorithm: no
Velocity-autocorrelation function modified order-N algorithm: no
Rotational velocity-autocorrelation function modified order-N algorithm: no
Molecular orientation-autocorrelation function modified order-N algorithm: no
Bond orientation-autocorrelation function modified order-N algorithm: no
Mean-squared displacement (conventional algorithm): no
Velocity-autocorrelation function (conventional algorithm): no
3D density grid for adsorbates: no
Compute cation an/or adsorption sites: no
dcTST snapshots: no
Compute pressure and stress: no


VTK
===========================================================================
VTK fractional-range position framework atoms: [-0.001000,1.001000] [-0.001000,1.001000] [-0.001000,1.001000]
VTK fractional-range position framework bonds: [-0.151000,1.151000] [-0.151000,1.151000] [-0.151000,1.151000]
VTK fractional-range com-position adsorbate molecules: [-0.101000,1.101000] [-0.101000,1.101000] [-0.101000,1.101000]
VTK fractional-range com-position cation molecules: [-0.101000,1.101000] [-0.101000,1.101000] [-0.101000,1.101000]
	3D free energy grid made for the full simulation-cell


Thermo/Baro-stat NHC parameters
===========================================================================
External temperature: 208 [K]
Beta: 0.00578232 [energy unit]
External Pressure: 20000 [Pa]


Thermostat chain-length: 3
Timescale parameter for thermostat: 0.150000 [ps]
Barostat chain-length:   3
Timescale parameter for barostat:   0.150000 [ps]

Number of Yoshida-Suzuki decomposition steps: 5
Number of respa steps: 5


Method and settings for electrostatics
===============================================================================
Dielectric constant of the medium : 1.000000
Charge from charge-equilibration: no
No electrostatics


CFC-RXMC parameters
===========================================================================
Number of reactions: 0


Rattle parameters
===========================================================================
Distance constraint type: r^2-r^2_0
Bend angle constraint type: theta-theta_0
Dihedral angle constraint type: phi-phi_0
Inversion-bend angle constraint type: chi-chi_0
Out-of-plane distance constraint type: r-r_0


Spectra parameters
===========================================================================
Compute normal modes: no


Minimization parameters
===========================================================================
Generalized coordinates are: Cartesian center-of-mass, elements of the orientational matrix p1,p2,p3 and strain
Potential derivatives are evaluated: analytically
Translation of the system is removed from the generalized Hessian: no
Rotation of the system is removed from the generalized Hessian: no
Maximum step-length: 0.3
Convergence factor: 1
Maximum number of minimization steps: 10000
Use gradients in the line-minimizations: yes
RMS gradient tolerance: 1e-06
Maximum gradient tolerance: 1e-06

Distance constraints: 0
Angle constraints: 0
Dihedral constraints: 0

Improper dihedral constraints: 0

Inversion-bend constraints: 0

Out-of-plane constraints: 0

Harmonic distance constraints: 0
Harmonic angle constraints: 0
Harmonic dihedral constraints: 0

Dihedral mid-point measurements: 0

All framework atoms are fixed

Fixed adsorbate atoms:  
Fixed adsorbate groups (center-of-mass):  
Fixed adsorbate groups (orientation):  

Fixed cation atoms:  
Fixed cation groups (center-of-mass):  
Fixed cation groups (orientation):  


dcTST parameters
===========================================================================
Free energy profiles computed: no
Free energy profiles written every 5000 cycles
Free energy mapping: mapped to a,b,c-coordinates
BarrierPosition:       0.0000000000       0.0000000000       0.0000000000
BarrierNormal:         0.0000000000       0.0000000000       0.0000000000
Start with a molecule on top of the barrier: no
Maximum distance to barrier (e.g. distance to minumum free energy):       0.0000000000 [A]
Maximum trajectory time:      10.0000000000 [ps]
Each configuration is used with 5 different initial velocities


Cbmc parameters
===========================================================================
Biasing method: using only the VDW part
Number of trial positions:                                       10
Number of trial positions (reinsertion):                         10
Number of trial positions (partial reinsertion):                 10
Number of trial positions (identity-change):                     10
Number of trial positions (Gibbs particle transfer):             10
Number of trial positions (insertion/deletion):                  10
Number of trial positions (Widom insertion):                     10
Number of trial positions coupled Torsion-selection:             100
Number of trial positions first bead:                            10
Number of trial positions first bead (reinsertion):              10
Number of trial positions first bead (partial reinsertion):      10
Number of trial positions first bead (identity-change):          10
Number of trial positions first bead (Gibbs particle transfer):  10
Number of trial positions first bead (insertion/deletion):       10
Number of trial positions first bead (Widom insertion):          10
Number of trial moves per open bead:                             150
Target acceptance ratio small-mc scheme:                         0.400000
Energy overlap criteria:                                         1e+07
Minimal Rosenbluth factor:                                       1e-150


Pseudo atoms: 11
===========================================================================
Pseudo Atom[   0] Name UNIT     Oxidation:          Element: H    pdb-name: H    Scat. Types:   1   1 Mass=1.000000000  B-factor:0.000   
                 Charge=1.000000000          Polarization=0.000000000  [A^3] (considered a charged atom and no polarization)  Interactions:  no
                 Anisotropic factor:    0.000 [-] (Absolute), Radius:    1.000 [A], Framework-atom:  no
Pseudo Atom[   1] Name UNIT     Oxidation: +0       Element: H    pdb-name: H    Scat. Types:   1   1 Mass=0.000000000  B-factor:0.000   
                 Charge=0.000000000          Polarization=0.000000000  [A^3] (considered a chargeless atom and no polarization)  Interactions:  no
                 Anisotropic factor:    0.000 [-] (Absolute), Radius:    0.000 [A], Framework-atom:  no
Pseudo Atom[   2] Name C_co2    Oxidation: +0       Element: C    pdb-name: C    Scat. Types:   7   6 Mass=12.011000000 B-factor:1.000   
                 Charge=0.700000000          Polarization=0.000000000  [A^3] (considered a charged atom and no polarization)  Interactions: yes
                 Anisotropic factor:    0.000 [-] (Relative), Radius:    0.720 [A], Framework-atom:  no
Pseudo Atom[   3] Name O_co2    Oxidation: +0       Element: O    pdb-name: O    Scat. Types:   9   8 Mass=15.999400000 B-factor:1.000   
                 Charge=-0.350000000         Polarization=0.000000000  [A^3] (considered a charged atom and no polarization)  Interactions: yes
                 Anisotropic factor:    0.000 [-] (Relative), Radius:    0.680 [A], Framework-atom:  no
Pseudo Atom[   4] Name Zn1      Oxidation:          Element: Zn   pdb-name: Zn   Scat. Types:  31  30 Mass=65.408728088 B-factor:0.000   
                 Charge=0.000000000  (-na-)  Polarization=5.750000000  [A^3] (considered a chargeless atom and no polarization)  Interactions: yes
                 Anisotropic factor:    0.000 [-] (Absolute), Radius:    1.200 [A], Framework-atom: yes (charge definition not found)
Pseudo Atom[   5] Name O1       Oxidation:          Element: O    pdb-name: O    Scat. Types:   9   8 Mass=15.999404927 B-factor:0.000   
                 Charge=0.000000000  (-na-)  Polarization=0.802000000  [A^3] (considered a chargeless atom and no polarization)  Interactions: yes
                 Anisotropic factor:    0.000 [-] (Absolute), Radius:    0.640 [A], Framework-atom: yes (charge definition not found)
Pseudo Atom[   6] Name O2       Oxidation:          Element: O    pdb-name: O    Scat. Types:   9   8 Mass=15.999404927 B-factor:0.000   
                 Charge=0.000000000  (-na-)  Polarization=0.802000000  [A^3] (considered a chargeless atom and no polarization)  Interactions: yes
                 Anisotropic factor:    0.000 [-] (Absolute), Radius:    0.640 [A], Framework-atom: yes (charge definition not found)
Pseudo Atom[   7] Name C1       Oxidation:          Element: C    pdb-name: C    Scat. Types:   7   6 Mass=12.010735897 B-factor:0.000   
                 Charge=0.000000000  (-na-)  Polarization=1.760000000  [A^3] (considered a chargeless atom and no polarization)  Interactions: yes
                 Anisotropic factor:    0.000 [-] (Absolute), Radius:    0.750 [A], Framework-atom: yes (charge definition not found)
Pseudo Atom[   8] Name C2       Oxidation:          Element: C    pdb-name: C    Scat. Types:   7   6 Mass=12.010735897 B-factor:0.000   
                 Charge=0.000000000  (-na-)  Polarization=1.760000000  [A^3] (considered a chargeless atom and no polarization)  Interactions: yes
                 Anisotropic factor:    0.000 [-] (Absolute), Radius:    0.750 [A], Framework-atom: yes (charge definition not found)
Pseudo Atom[   9] Name C3       Oxidation:          Element: C    pdb-name: C    Scat. Types:   7   6 Mass=12.010735897 B-factor:0.000   
                 Charge=0.000000000  (-na-)  Polarization=1.760000000  [A^3] (considered a chargeless atom and no polarization)  Interactions: yes
                 Anisotropic factor:    0.000 [-] (Absolute), Radius:    0.750 [A], Framework-atom: yes (charge definition not found)
Pseudo Atom[  10] Name H1       Oxidation:          Element: H    pdb-name: H    Scat. Types:   1   1 Mass=1.007940754  B-factor:0.000   
                 Charge=0.000000000  (-na-)  Polarization=0.666793000  [A^3] (considered a chargeless atom and no polarization)  Interactions: yes
                 Anisotropic factor:    0.000 [-] (Absolute), Radius:    0.320 [A], Framework-atom: yes (charge definition not found)


Forcefield: IRMOF-1_K.Walton_truncated
===========================================================================
Minimal distance: 1
CutOff VDW : 25.000000 (625.000000)
CutOff VDW switching on: 22.500000 (506.250000)
CutOff charge-charge : 12.000000 (144.000000)
CutOff charge-charge switching on: 7.800000 (60.840000)
CutOff charge-bonddipole : 12.000000 (144.000000)
CutOff charge-bondipole switching on: 8.400000 (70.560000)
CutOff bonddipole-bonddipole : 12.000000 (144.000000)
CutOff bonddipole-bondipole switching on: 9.000000 (81.000000)
Polarization is neglected
All potentials are shifted to zero at the Cutoff

No general mixing rule: all cross term specified individualy
0 cross terms are overwritten using the individual mixing rules from the file 'force_field_mixing_rules.def'
and then 11 terms are overwritten using the specific interactions from the file 'force_field.def'

The force field and all the interactions:
  C_co2 -   C_co2 [LENNARD_JONES] p_0/k_B:  27.00000 [K], p_1: 2.80000 [A], shift/k_B:   0.00000000 [K], tailcorrection: no
  C_co2 -   O_co2 [LENNARD_JONES] p_0/k_B:  46.18000 [K], p_1: 2.93000 [A], shift/k_B:   0.00000000 [K], tailcorrection: no
  C_co2 -     Zn1 [LENNARD_JONES] p_0/k_B:  27.35000 [K], p_1: 3.42000 [A], shift/k_B:   0.00000000 [K], tailcorrection: no
  C_co2 -      O1 [LENNARD_JONES] p_0/k_B:  36.07000 [K], p_1: 2.92000 [A], shift/k_B:   0.00000000 [K], tailcorrection: no
  C_co2 -      O2 [LENNARD_JONES] p_0/k_B:  36.07000 [K], p_1: 2.92000 [A], shift/k_B:   0.00000000 [K], tailcorrection: no
  C_co2 -      C1 [LENNARD_JONES] p_0/k_B:  35.96000 [K], p_1: 3.32000 [A], shift/k_B:   0.00000000 [K], tailcorrection: no
  C_co2 -      C2 [LENNARD_JONES] p_0/k_B:  35.96000 [K], p_1: 3.32000 [A], shift/k_B:   0.00000000 [K], tailcorrection: no
  C_co2 -      C3 [LENNARD_JONES] p_0/k_B:  35.96000 [K], p_1: 3.32000 [A], shift/k_B:   0.00000000 [K], tailcorrection: no
  C_co2 -      H1 [LENNARD_JONES] p_0/k_B:  14.38000 [K], p_1: 2.82000 [A], shift/k_B:   0.00000000 [K], tailcorrection: no
  O_co2 -   O_co2 [LENNARD_JONES] p_0/k_B:  79.00000 [K], p_1: 3.05000 [A], shift/k_B:   0.00000000 [K], tailcorrection: no
  O_co2 -     Zn1 [LENNARD_JONES] p_0/k_B:  46.78000 [K], p_1: 3.55000 [A], shift/k_B:   0.00000000 [K], tailcorrection: no
  O_co2 -      O1 [LENNARD_JONES] p_0/k_B:  61.70000 [K], p_1: 3.04000 [A], shift/k_B:   0.00000000 [K], tailcorrection: no
  O_co2 -      O2 [LENNARD_JONES] p_0/k_B:  61.70000 [K], p_1: 3.04000 [A], shift/k_B:   0.00000000 [K], tailcorrection: no
  O_co2 -      C1 [LENNARD_JONES] p_0/k_B:  61.51000 [K], p_1: 3.26000 [A], shift/k_B:   0.00000000 [K], tailcorrection: no
  O_co2 -      C2 [LENNARD_JONES] p_0/k_B:  61.51000 [K], p_1: 3.26000 [A], shift/k_B:   0.00000000 [K], tailcorrection: no
  O_co2 -      C3 [LENNARD_JONES] p_0/k_B:  61.51000 [K], p_1: 3.26000 [A], shift/k_B:   0.00000000 [K], tailcorrection: no
  O_co2 -      H1 [LENNARD_JONES] p_0/k_B:  24.59000 [K], p_1: 2.95000 [A], shift/k_B:   0.00000000 [K], tailcorrection: no


MoleculeDefinitions:
===========================================================================
Component 0 [CO2] (Adsorbate molecule)

	MoleculeDefinitions: TraPPE
	Component contains (at least some) atoms which are charged
	Component contains no atoms with point dipoles (polarization)
	Component has a net charge of 0.000000

	Ideal chain Rosenbluth weight: 1
	Ideal chain total energy: 0.000000

	Critical temparure [K]: 304.128200
	Critical pressure [Pa]: 7377300.000000
	Acentric factor [-]: 0.223940

	RXMC partition factor [-]: 0.000000

	Vapour=stable, Liquid=metastable

	MolFraction:           1.0000000000 [-]
	Compressibility:       0.9969638266 [-]

	Density of the bulk fluid phase:       0.5105077618 [kg/m^3]

	Binary mixture EOS parameters:  (0): 0.000000

	Amount of excess molecules:       0.7513851917 [-]

	Conversion factor molecules/unit cell -> mol/kg:       0.1623418522 [-]
	Conversion factor molecules/unit cell -> gr/gr:       7.1446324487 [-]
	Conversion factor molecules/unit cell -> cm^3 STP/gr:       3.6387263389 [-]
	Conversion factor molecules/unit cell -> cm^3 STP/cm^3:       2.1592046669 [-]
	Conversion factor mol/kg -> cm^3 STP/gr:      22.4139757476 [-]
	Conversion factor mol/kg -> cm^3 STP/cm^3:      13.3003574685 [-]

	Partial pressure:     20000.00000000000000 [Pa]
	                        150.00000000000000 [Torr]
	                          0.20000000000000 [bar]
	                          0.19738465334320 [atm]

	Fugacity coefficient:       0.9969719566 [-]

	Partial fugacity:     19939.43913238073219 [Pa]
	                        149.54579349285549 [Torr]
	                          0.19939439132381 [bar]
	                          0.19678696405014 [atm]

	Molecule contains 3 number of atoms
		atom:    0  is of type:    3 [     O_co2] (group: 0)
		atom:    1  is of type:    2 [     C_co2] (group: 0)
		atom:    2  is of type:    3 [     O_co2] (group: 0)

	Molecule contains 0 chirality centers

	Molecule contains 1 number of groups

		group: 0 containing: 3 elements
		-------------------------------------------------
		the group is rigid and linear
		Mass: 44.009800 [a.u.]
		Mass: 0.529949 [kg/m^3]

		Rotational Degrees of freedom: 2
		Diagonalized inertia vector:      43.0575852800
		                                  43.0575852800
		                                   0.0000000000
		number of atoms: 3
			element: 0 atom: 0 [     O_co2] Charge: -0.350000 Anisotropy: 0.000000 Position:  0.000000 -0.000000  1.160000 Connectivity: 1 (1 )
			element: 1 atom: 1 [     C_co2] Charge:  0.700000 Anisotropy: 0.000000 Position:  0.000000 -0.000000  0.000000 Connectivity: 2 (0 2 )
			element: 2 atom: 2 [     O_co2] Charge: -0.350000 Anisotropy: 0.000000 Position:  0.000000 -0.000000 -1.160000 Connectivity: 1 (1 )
		number of permanent dipoles: 0
		number of polarizabilities: 0

		Dipole:           0.0000000000 [D]
		Quadrupole:       2.2621182741       2.2621182741      -4.5242365482 [D Angstrom]
		Quadrupole tensor [D Angstrom]
				       2.2621182741       0.0000000000       0.0000000000
				       0.0000000000       2.2621182741       0.0000000000
				       0.0000000000       0.0000000000      -4.5242365482

	Starting bead for growth               : 0

	Degrees of freedom                     : 0
	Translational degrees of freedom       : 0
	Rotational degrees of freedom          : 0
	Vibrational degrees of freedom         : 0
	Constraint degrees of freedom          : 0

	Number of atoms                        : 3

	Number of constraint bonds             : 0
	Number of constraint bends             : 0
	Number of constraint inversion bends   : 0
	Number of constraint torsions          : 0
	Number of constraint improper torsions : 0
	Number of constraint improper torsions : 0

	Number of bonds                        : 2
	Number of Urey-Bradleys                : 0
	Number of bends                        : 0
	Number of inversion bends              : 0
	Number of torsions                     : 0
	Number of improper torsions            : 0
	Number of improper torsions            : 0

	Number of bond/bond cross terms        : 0
	Number of bond/bend cross terms        : 0
	Number of bend/bend cross terms        : 0
	Number of stretch/torsion cross terms  : 0
	Number of bend/torsion cross terms     : 0

	Number of charges                      : 3
	Number of bond-dipoles                 : 0

	Number of intra Van der Waals                             : 0
	Number of intra charge-charge Coulomb                     : 0
	Number of intra charge-bonddipole Coulomb                 : 0
	Number of intra bonddipole-bonddipole Coulomb             : 0

	Number of excluded intra charge-charge Coulomb                     : 3
	Number of excluded intra charge-bonddipole Coulomb                 : 0
	Number of excluded intra bonddipole-bonddipole Coulomb             : 0

	Number of cbmc-config moves                               : 0

	Particle Moves:             
		ProbabilityTranslationMove:                  25.000000
			TranslationDirection:      XYZ
		Percentage of random translation moves:            0.000000
		Percentage of rotation moves:                      25.000000
		Percentage of random rotation moves:               0.000000
		Percentage of partial reinsertion moves:           0.000000
		Percentage of reinsertion moves:                   0.000000
		Percentage of reinsertion-in-place moves:          0.000000
		Percentage of reinsertion-in-plane moves:          0.000000
		Percentage of identity-change moves:               0.000000
		Percentage of swap (insert/delete) moves:          50.000000
		Percentage of CF swap lambda moves:                0.000000
		Percentage of CB/CFMC swap lambda moves:           0.000000
		Percentage of Widom insertion moves:               0.000000
		Percentage of surface-area moves:                  0.000000
		Percentage of Gibbs particle-transfer moves:       0.000000
		Percentage of Gibbs identity-change moves:         0.000000
		Percentage of CF Gibbs lambda-transfer moves:      0.000000
		Percentage of CB/CFMC Gibbs lambda-transfer moves: 0.000000

	System Moves:
		Percentage of parallel-tempering moves:            0.000000
		Percentage of hyper-parallel-tempering moves:      0.000000
		Percentage of parallel-mol-fraction moves:         0.000000
			   Component A: 0 B: 1
		Percentage of chiral inversion moves:              0.000000
		Percentage of Hybrid-NVE moves:                    0.000000
		Percentage of Hybrid-NPH moves:                    0.000000
		Percentage of Hybrid-NPHPR moves:                  0.000000
		Percentage of volume-change moves:                 0.000000
		Percentage of box-shape-change moves:              0.000000
		Percentage of Gibbs volume-change moves:           0.000000
		Percentage of framework-change moves:              0.000000
		Percentage of framework-shift moves:               0.000000
		Percentage of reactive MC moves:                   0.000000

	Moves are restricted: No
	No biased sampling used for this component

	Number of Bonds: 2
	--------------------------------------------
	Bond interaction 0: A=0 B=1 Type:RIGID_BOND
		r_0=1.1600000000       [A]
	Bond interaction 1: A=1 B=2 Type:RIGID_BOND
		r_0=1.1600000000       [A]


	number of identity-config changes: 1
	--------------------------------------------
	nr fixed 1: 0 

	Number of pockets blocked in a unitcell: 0
		Pockets are NOT blocked for this component



Framework Status
===========================================================================
Lowenstein's rule obeyed by framework
	Framework is modelled as: rigid

	Number of charges:                               0
	Number of bonddipoles:                           0


System Properties
===========================================================================
Unit cell size: 25.832000 25.832000 25.832000
Cell angles (radians)  alpha: 1.570796 beta: 1.570796 gamma: 1.570796
Cell angles (degrees)  alpha: 90.000000 beta: 90.000000 gamma: 90.000000
Number of unitcells [a]: 2
Number of unitcells [b]: 2
Number of unitcells [c]: 2

TRICLINIC Boundary conditions: alpha!=90 or beta!=90 or gamma!=90

Cartesian axis A is collinear with crystallographic axis a
Cartesian axis B is collinear with (axb)xA
Cartesian axis C is collinear with (axb)

lengths of cell vectors:
 51.66400  51.66400  51.66400
cosines of cell angles:
  0.00000   0.00000   0.00000
perpendicular cell widths:
 51.66400  51.66400  51.66400
volume of the cell: 137899.941842944012 (A^3)

Orthogonalization matrix Box
Transforms fractional coordinates abc into orthonormal Cartesian coordinates xyz
Deorthogonalization matrix InverseBox
Transforms orthonormal Cartesian coordinates xyz into fractional coordinates xyz

Box[0]:
	   51.664000000000     0.000000000000     0.000000000000
	    0.000000000000    51.664000000000     0.000000000000
	    0.000000000000     0.000000000000    51.664000000000

Inverse box[0]:
	    0.019355837721    -0.000000000000    -0.000000000000
	    0.000000000000     0.019355837721    -0.000000000000
	    0.000000000000     0.000000000000     0.019355837721


Unitcell box[0]:
	   25.832000000000     0.000000000000     0.000000000000
	    0.000000000000    25.832000000000     0.000000000000
	    0.000000000000     0.000000000000    25.832000000000

Unitcell inverse box[0]:
	    0.038711675441    -0.000000000000    -0.000000000000
	    0.000000000000     0.038711675441    -0.000000000000
	    0.000000000000     0.000000000000     0.038711675441

lengths of cell vectors (inverse box):
  0.01936   0.01936   0.01936
cosines of cell angles (inverse box):
 -0.00000  -0.00000  -0.00000
perpendicular cell widths (inverse):
  0.01936   0.01936   0.01936
volume of the cell: 137899.941842944012 (A^3)

No replicas are used
Framework is simulated as 'rigid'
Number of framework atoms: 3392
Number of framework atoms in the unit cell: 424
Framework Mass: 49278.728126319314 [g/mol]
Framework Density:   593.395728552265 [kg/m^3]    1.6852160402970 [cm^3/g]
Helium void fraction:    0.78000000
Available pore volume: 107561.95463750 [A^3]    1.31446851 [cm^3/g]
Conversion factor from molecule/unit cell -> kmol/m^3: 0.0120416, kmol/m^3 accesible pore volume: 0.015438

Number Of Frameworks (per system): 1
----------------------------------------------------------------------
Framework name: IRMOF-1
Citation:
	author name:        'M. Eddaoudi, J. Kim, N. Rosi, D. Vodak, J. Wachter, M. O. Keeffe, and O.M. Yaghi'
	title:              'Systematic design of pore size and functionality in isoreticular MOFs and their application in methane storage'
	journal abbrev.:    'Science'
	journal volume:     295
	first page:         469
	last page:          472
	year:               2002
Space group: 225
	Identifier: 523
	short international Hermann-Mauguin symbol: F m -3 m
	long international Hermann-Mauguin symbol: F 4/m -3 2/m
	Hall symbol: -F 4 2 3
	Number of lattice translations: 4 [ (0,0,0) (0,0.5,0.5) (0.5,0,0.5) (0.5,0.5,0) ]
	acentric/centric: acentric
	chiral: yes
	enantiomorphic: no
	number of operators: 192
		'x,y,z'
		'-x,-y,z'
		'-x,y,-z'
		'x,-y,-z'
		'z,x,y'
		'z,-x,-y'
		'-z,-x,y'
		'-z,x,-y'
		'y,z,x'
		'-y,z,-x'
		'y,-z,-x'
		'-y,-z,x'
		'y,x,-z'
		'-y,-x,-z'
		'y,-x,z'
		'-y,x,z'
		'x,z,-y'
		'-x,z,y'
		'-x,-z,-y'
		'x,-z,y'
		'z,y,-x'
		'z,-y,x'
		'-z,y,x'
		'-z,-y,-x'
		'-x,-y,-z'
		'x,y,-z'
		'x,-y,z'
		'-x,y,z'
		'-z,-x,-y'
		'-z,x,y'
		'z,x,-y'
		'z,-x,y'
		'-y,-z,-x'
		'y,-z,x'
		'-y,z,x'
		'y,z,-x'
		'-y,-x,z'
		'y,x,z'
		'-y,x,-z'
		'y,-x,-z'
		'-x,-z,y'
		'x,-z,-y'
		'x,z,y'
		'-x,z,-y'
		'-z,-y,x'
		'-z,y,-x'
		'z,-y,-x'
		'z,y,x'
		'x,y+1/2,z+1/2'
		'-x,-y+1/2,z+1/2'
		'-x,y+1/2,-z+1/2'
		'x,-y+1/2,-z+1/2'
		'z,x+1/2,y+1/2'
		'z,-x+1/2,-y+1/2'
		'-z,-x+1/2,y+1/2'
		'-z,x+1/2,-y+1/2'
		'y,z+1/2,x+1/2'
		'-y,z+1/2,-x+1/2'
		'y,-z+1/2,-x+1/2'
		'-y,-z+1/2,x+1/2'
		'y,x+1/2,-z+1/2'
		'-y,-x+1/2,-z+1/2'
		'y,-x+1/2,z+1/2'
		'-y,x+1/2,z+1/2'
		'x,z+1/2,-y+1/2'
		'-x,z+1/2,y+1/2'
		'-x,-z+1/2,-y+1/2'
		'x,-z+1/2,y+1/2'
		'z,y+1/2,-x+1/2'
		'z,-y+1/2,x+1/2'
		'-z,y+1/2,x+1/2'
		'-z,-y+1/2,-x+1/2'
		'-x,-y+1/2,-z+1/2'
		'x,y+1/2,-z+1/2'
		'x,-y+1/2,z+1/2'
		'-x,y+1/2,z+1/2'
		'-z,-x+1/2,-y+1/2'
		'-z,x+1/2,y+1/2'
		'z,x+1/2,-y+1/2'
		'z,-x+1/2,y+1/2'
		'-y,-z+1/2,-x+1/2'
		'y,-z+1/2,x+1/2'
		'-y,z+1/2,x+1/2'
		'y,z+1/2,-x+1/2'
		'-y,-x+1/2,z+1/2'
		'y,x+1/2,z+1/2'
		'-y,x+1/2,-z+1/2'
		'y,-x+1/2,-z+1/2'
		'-x,-z+1/2,y+1/2'
		'x,-z+1/2,-y+1/2'
		'x,z+1/2,y+1/2'
		'-x,z+1/2,-y+1/2'
		'-z,-y+1/2,x+1/2'
		'-z,y+1/2,-x+1/2'
		'z,-y+1/2,-x+1/2'
		'z,y+1/2,x+1/2'
		'x+1/2,y,z+1/2'
		'-x+1/2,-y,z+1/2'
		'-x+1/2,y,-z+1/2'
		'x+1/2,-y,-z+1/2'
		'z+1/2,x,y+1/2'
		'z+1/2,-x,-y+1/2'
		'-z+1/2,-x,y+1/2'
		'-z+1/2,x,-y+1/2'
		'y+1/2,z,x+1/2'
		'-y+1/2,z,-x+1/2'
		'y+1/2,-z,-x+1/2'
		'-y+1/2,-z,x+1/2'
		'y+1/2,x,-z+1/2'
		'-y+1/2,-x,-z+1/2'
		'y+1/2,-x,z+1/2'
		'-y+1/2,x,z+1/2'
		'x+1/2,z,-y+1/2'
		'-x+1/2,z,y+1/2'
		'-x+1/2,-z,-y+1/2'
		'x+1/2,-z,y+1/2'
		'z+1/2,y,-x+1/2'
		'z+1/2,-y,x+1/2'
		'-z+1/2,y,x+1/2'
		'-z+1/2,-y,-x+1/2'
		'-x+1/2,-y,-z+1/2'
		'x+1/2,y,-z+1/2'
		'x+1/2,-y,z+1/2'
		'-x+1/2,y,z+1/2'
		'-z+1/2,-x,-y+1/2'
		'-z+1/2,x,y+1/2'
		'z+1/2,x,-y+1/2'
		'z+1/2,-x,y+1/2'
		'-y+1/2,-z,-x+1/2'
		'y+1/2,-z,x+1/2'
		'-y+1/2,z,x+1/2'
		'y+1/2,z,-x+1/2'
		'-y+1/2,-x,z+1/2'
		'y+1/2,x,z+1/2'
		'-y+1/2,x,-z+1/2'
		'y+1/2,-x,-z+1/2'
		'-x+1/2,-z,y+1/2'
		'x+1/2,-z,-y+1/2'
		'x+1/2,z,y+1/2'
		'-x+1/2,z,-y+1/2'
		'-z+1/2,-y,x+1/2'
		'-z+1/2,y,-x+1/2'
		'z+1/2,-y,-x+1/2'
		'z+1/2,y,x+1/2'
		'x+1/2,y+1/2,z'
		'-x+1/2,-y+1/2,z'
		'-x+1/2,y+1/2,-z'
		'x+1/2,-y+1/2,-z'
		'z+1/2,x+1/2,y'
		'z+1/2,-x+1/2,-y'
		'-z+1/2,-x+1/2,y'
		'-z+1/2,x+1/2,-y'
		'y+1/2,z+1/2,x'
		'-y+1/2,z+1/2,-x'
		'y+1/2,-z+1/2,-x'
		'-y+1/2,-z+1/2,x'
		'y+1/2,x+1/2,-z'
		'-y+1/2,-x+1/2,-z'
		'y+1/2,-x+1/2,z'
		'-y+1/2,x+1/2,z'
		'x+1/2,z+1/2,-y'
		'-x+1/2,z+1/2,y'
		'-x+1/2,-z+1/2,-y'
		'x+1/2,-z+1/2,y'
		'z+1/2,y+1/2,-x'
		'z+1/2,-y+1/2,x'
		'-z+1/2,y+1/2,x'
		'-z+1/2,-y+1/2,-x'
		'-x+1/2,-y+1/2,-z'
		'x+1/2,y+1/2,-z'
		'x+1/2,-y+1/2,z'
		'-x+1/2,y+1/2,z'
		'-z+1/2,-x+1/2,-y'
		'-z+1/2,x+1/2,y'
		'z+1/2,x+1/2,-y'
		'z+1/2,-x+1/2,y'
		'-y+1/2,-z+1/2,-x'
		'y+1/2,-z+1/2,x'
		'-y+1/2,z+1/2,x'
		'y+1/2,z+1/2,-x'
		'-y+1/2,-x+1/2,z'
		'y+1/2,x+1/2,z'
		'-y+1/2,x+1/2,-z'
		'y+1/2,-x+1/2,-z'
		'-x+1/2,-z+1/2,y'
		'x+1/2,-z+1/2,-y'
		'x+1/2,z+1/2,y'
		'-x+1/2,z+1/2,-y'
		'-z+1/2,-y+1/2,x'
		'-z+1/2,y+1/2,-x'
		'z+1/2,-y+1/2,-x'
		'z+1/2,y+1/2,x'
Framework is simulated as 'rigid'
Shift: 0.000000 0.000000 0.000000
Number of framework atoms: 3392
Number of asymmetric atoms: 7
Number of free framework atoms: 0
Number of fixed framework atoms: 3392
Number of framework atoms in the unit cell: 424
Framework Mass: 49278.728126319314 [g/mol]
Framework Density:   593.395728552265 [kg/m^3]
Framework has net charge: 0.000000
         largest charge : 0.000000
         smallest charge: 0.000000

Using FULL Host-guest interaction calculation (for testing purposes)

Current Atom Status
===========================================================================
Number of framework atoms        : 3392
Number of cations molecules      : 0
Number of adsorbate molecules    : 0
Component    0 :    0 molecules
Pseudo Atoms    0 [    UNIT]:    0 atoms
Pseudo Atoms    1 [    UNIT]:    0 atoms
Pseudo Atoms    2 [   C_co2]:    0 atoms
Pseudo Atoms    3 [   O_co2]:    0 atoms
Pseudo Atoms    4 [     Zn1]:  256 atoms
Pseudo Atoms    5 [      O1]:   64 atoms
Pseudo Atoms    6 [      O2]:  768 atoms
Pseudo Atoms    7 [      C1]:  384 atoms
Pseudo Atoms    8 [      C2]:  384 atoms
Pseudo Atoms    9 [      C3]:  768 atoms
Pseudo Atoms   10 [      H1]:  768 atoms


Current (initial full energy) Energy Status
===========================================================================

Internal energy:
Host stretch energy:                                            0.00000000
Host UreyBradley energy:                                        0.00000000
Host bend energy:                                               0.00000000
Host inversion-bend energy:                                     0.00000000
Host torsion energy:                                            0.00000000
Host improper torsion energy:                                   0.00000000
Host out-of-plane energy:                                       0.00000000
Host stretch/stretch energy:                                    0.00000000
Host bend/bend energy:                                          0.00000000
Host stretch/bend energy:                                       0.00000000
Host stretch/torsion energy:                                    0.00000000
Host bend/torsion energy:                                       0.00000000

Adsorbate stretch energy:                                       0.00000000
Adsorbate UreyBradley energy:                                   0.00000000
Adsorbate bend energy:                                          0.00000000
Adsorbate inversion-bend energy:                                0.00000000
Adsorbate torsion energy:                                       0.00000000
Adsorbate improper torsion energy:                              0.00000000
Adsorbate out-of-plane energy:                                  0.00000000
Adsorbate stretch/stretch energy:                               0.00000000
Adsorbate bend/bend energy:                                     0.00000000
Adsorbate stretch/bend energy:                                  0.00000000
Adsorbate stretch/torsion energy:                               0.00000000
Adsorbate bend/torsion energy:                                  0.00000000
Adsorbate intra VDW energy:                                     0.00000000
Adsorbate intra charge-charge Coulomb energy:                   0.00000000
Adsorbate intra charge-bonddipole Coulomb energy:               0.00000000
Adsorbate intra bonddipole-bonddipole Coulomb energy:           0.00000000

Cation stretch energy:                                          0.00000000
Cation UreyBradley energy:                                      0.00000000
Cation bend energy:                                             0.00000000
Cation inversion-bend energy:                                   0.00000000
Cation torsion energy:                                          0.00000000
Cation improper torsion energy:                                 0.00000000
Cation out-of-plane energy:                                     0.00000000
Cation stretch/stretch energy:                                  0.00000000
Cation bend/bend energy:                                        0.00000000
Cation stretch/bend energy:                                     0.00000000
Cation stretch/torsion energy:                                  0.00000000
Cation bend/torsion energy:                                     0.00000000
Cation intra VDW energy:                                        0.00000000
Cation intra charge-charge Coulomb energy:                      0.00000000
Cation intra charge-bonddipole Coulomb energy:                  0.00000000
Cation intra bonddipole-bonddipole Coulomb energy:              0.00000000

Host/Host energy:                                             0.00000000
	Host/Host VDW energy:                                         0.00000000
	Host/Host Coulomb energy:                                     0.00000000
	Host/Host charge-charge Real energy:                          0.00000000
	Host/Host charge-charge Fourier energy:                       0.00000000
	Host/Host charge-bonddipole Real energy:                      0.00000000
	Host/Host charge-bonddipole Fourier energy:                   0.00000000
	Host/Host bondipole-bonddipole Real energy:                   0.00000000
	Host/Host bondipole-bonddipole Fourier energy:                0.00000000

Host/Adsorbate energy:                                        0.00000000
	Host/Adsorbate VDW energy:                                    0.00000000
	Host/Adsorbate Coulomb energy:                                0.00000000
	Host/Adsorbate charge-charge Real energy:                     0.00000000
	Host/Adsorbate charge-charge Fourier energy:                  0.00000000
	Host/Adsorbate charge-bonddipole Real energy:                 0.00000000
	Host/Adsorbate charge-bonddipole Fourier energy:              0.00000000
	Host/Adsorbate bondipole-bonddipole Real energy:              0.00000000
	Host/Adsorbate bondipole-bonddipole Fourier energy:           0.00000000

Host/Cation energy:                                           0.00000000
	Host/Cation VDW energy:                                       0.00000000
	Host/Cation Coulomb energy:                                   0.00000000
	Host/Cation charge-charge Real energy:                        0.00000000
	Host/Cation charge-charge Fourier energy:                     0.00000000
	Host/Cation charge-bonddipole Real energy:                    0.00000000
	Host/Cation charge-bonddipole Fourier energy:                 0.00000000
	Host/Cation bondipole-bonddipole Real energy:                 0.00000000
	Host/Cation bondipole-bonddipole Fourier energy:              0.00000000

Adsorbate/Adsorbate energy:                                        0.00000000
	Adsorbate/Adsorbate VDW energy:                                    0.00000000
	Adsorbate/Adsorbate Coulomb energy:                                0.00000000
	Adsorbate/Adsorbate charge-charge Real energy:                     0.00000000
	Adsorbate/Adsorbate charge-charge Fourier energy:                  0.00000000
	Adsorbate/Adsorbate charge-bonddipole Real energy:                 0.00000000
	Adsorbate/Adsorbate charge-bonddipole Fourier energy:              0.00000000
	Adsorbate/Adsorbate bondipole-bonddipole Real energy:              0.00000000
	Adsorbate/Adsorbate bondipole-bonddipole Fourier energy:           0.00000000

Adsorbate/Cation energy:                                           0.00000000
	Adsorbate/Cation VDW energy:                                       0.00000000
	Adsorbate/Cation Coulomb energy:                                   0.00000000
	Adsorbate/Cation charge-charge Real energy:                        0.00000000
	Adsorbate/Cation charge-charge Fourier energy:                     0.00000000
	Adsorbate/Cation charge-bonddipole Real energy:                    0.00000000
	Adsorbate/Cation charge-bonddipole Fourier energy:                 0.00000000
	Adsorbate/Cation bondipole-bonddipole Real energy:                 0.00000000
	Adsorbate/Cation bondipole-bonddipole Fourier energy:              0.00000000

Cation/Cation energy:                                           0.00000000
	Cation/Cation VDW energy:                                       0.00000000
	Cation/Cation Coulomb energy:                                   0.00000000
	Cation/Cation charge-charge Real energy:                        0.00000000
	Cation/Cation charge-charge Fourier energy:                     0.00000000
	Cation/Cation charge-bonddipole Real energy:                    0.00000000
	Cation/Cation charge-bonddipole Fourier energy:                 0.00000000
	Cation/Cation bondipole-bonddipole Real energy:                 0.00000000
	Cation/Cation bondipole-bonddipole Fourier energy:              0.00000000

Polarization energy:
	Host polarization energy:                                     0.00000000
	Adsorbate polarization energy:                                0.00000000
	Cation polarization energy:                                   0.00000000
	Host back-polarization energy:                                     0.00000000
	Adsorbate back-polarization energy:                                0.00000000
	Cation back-polarization energy:                                   0.00000000

Tail-correction energy:                                       0.00000000

Distance constraints energy:                                  0.00000000
Angle constraints energy:                                     0.00000000
Dihedral constraints energy:                                  0.00000000
Inversion-bend constraints energy:                            0.00000000
Out-of-plane distance constraints energy:                     0.00000000
Exclusion constraints energy:                                 0.00000000

===================================================================
Total energy:     0.000000000000
	Total Van der Waals: 0.000000
	Total Coulomb: 0.000000

	Total Polarization: 0.000000







+++++++++++++++++++++++++++++++++++++++++++++++++++++++++++++++++++++++++
Starting simulation
+++++++++++++++++++++++++++++++++++++++++++++++++++++++++++++++++++++++++

[Init] Current cycle: 0 out of 6731
========================================================================================================

Net charge: 0 (F: 0, A: 0, C: 0)
Current Box:  51.66400   0.00000   0.00000 [A]
               0.00000  51.66400   0.00000 [A]
               0.00000   0.00000  51.66400 [A]
Box-lengths:  51.66400  51.66400  51.66400 Box-angles:   90.00000  90.00000  90.00000 [degrees]
Volume: 137899.94184 [A^3]

Loadings per component:
----------------------------------------------------------------------------------------------------------------------------------------------------
Component 0 (CO2), current number of integer/fractional/reaction molecules: 0/0/0, density:   0.00000 [kg/m^3]
	absolute adsorption:   0.00000 [mol/uc],         0.0000 [mol/kg],              0.0000 [mg/g]
	                                                 0.0000 [cm^3 STP/g],          0.0000 [cm^3 STP/cm^3]
	excess adsorption:    -0.09392 [mol/uc],        -0.0152 [mol/kg],             -0.6710 [mg/g]
	                                                -0.3418 [cm^3 STP/g],         -0.2028 [cm^3 STP/cm^3]
----------------------------------------------------------------------------------------------------------------------------------------------------
Degrees of freedom: 0 0 0 0
Number of Framework-atoms:   3392
Number of Adsorbates:           0 (0 integer, 0 fractional, 0 reaction)
Number of Cations:              0 (0 integer, 0 fractional, % reaction

Current total potential energy:                 0.0000000000 [K]
	Current Host-Host energy:                     0.0000000000 [K]
	Current Host-Adsorbate energy:                0.0000000000 [K]
	Current Host-Cation energy:                   0.0000000000 [K]
	Current Adsorbate-Adsorbate energy:           0.0000000000 [K]
	Current Cation-Cation energy:                 0.0000000000 [K]
	Current Adsorbate-Cation energy:              0.0000000000 [K]

WARNING: THERE ARE ATOM-PAIRS WITH NO VDW INTERACTION Zn1-Zn1 Zn1-O1 Zn1-O2 Zn1-C1 Zn1-C2 Zn1-C3 Zn1-H1 O1-Zn1 O1-O2 O1-C1 O1-C2 O1-C3 O1-H1 O2-Zn1 O2-O1 O2-C1 O2-C2 O2-C3 O2-H1 C1-Zn1 C1-O1 C1-O2 C1-C2 C1-C3 C1-H1 C2-Zn1 C2-O1 C2-O2 C2-C1 C2-C3 C2-H1 C3-Zn1 C3-O1 C3-O2 C3-C1 C3-C2 C3-H1 H1-Zn1 H1-O1 H1-O2 H1-C1 H1-C2 H1-C3  (maximum 50 interactions shown)


[Init] Current cycle: 673 out of 6731
========================================================================================================

Net charge: 0 (F: 0, A: 0, C: 0)
Current Box:  51.66400   0.00000   0.00000 [A]
               0.00000  51.66400   0.00000 [A]
               0.00000   0.00000  51.66400 [A]
Box-lengths:  51.66400  51.66400  51.66400 Box-angles:   90.00000  90.00000  90.00000 [degrees]
Volume: 137899.94184 [A^3]

Loadings per component:
----------------------------------------------------------------------------------------------------------------------------------------------------
Component 0 (CO2), current number of integer/fractional/reaction molecules: 151/0/0, density:  80.02241 [kg/m^3]
	absolute adsorption:  18.87500 [mol/uc],         3.0642 [mol/kg],            134.8549 [mg/g]
	                                                68.6810 [cm^3 STP/g],         40.7550 [cm^3 STP/cm^3]
	excess adsorption:    18.78108 [mol/uc],         3.0490 [mol/kg],            134.1839 [mg/g]
	                                                68.3392 [cm^3 STP/g],         40.5522 [cm^3 STP/cm^3]
----------------------------------------------------------------------------------------------------------------------------------------------------
Degrees of freedom: 755 0 755 0
Number of Framework-atoms:   3392
Number of Adsorbates:         151 (151 integer, 0 fractional, 0 reaction)
Number of Cations:              0 (0 integer, 0 fractional, % reaction

Current total potential energy:           -251608.7361861349 [K]
	Current Host-Host energy:                     0.0000000000 [K]
	Current Host-Adsorbate energy:          -236813.3290220767 [K]
	Current Host-Cation energy:                   0.0000000000 [K]
	Current Adsorbate-Adsorbate energy:      -14795.4071640531 [K]
	Current Cation-Cation energy:                 0.0000000000 [K]
	Current Adsorbate-Cation energy:              0.0000000000 [K]

WARNING: THERE ARE ATOM-PAIRS WITH NO VDW INTERACTION Zn1-Zn1 Zn1-O1 Zn1-O2 Zn1-C1 Zn1-C2 Zn1-C3 Zn1-H1 O1-Zn1 O1-O2 O1-C1 O1-C2 O1-C3 O1-H1 O2-Zn1 O2-O1 O2-C1 O2-C2 O2-C3 O2-H1 C1-Zn1 C1-O1 C1-O2 C1-C2 C1-C3 C1-H1 C2-Zn1 C2-O1 C2-O2 C2-C1 C2-C3 C2-H1 C3-Zn1 C3-O1 C3-O2 C3-C1 C3-C2 C3-H1 H1-Zn1 H1-O1 H1-O2 H1-C1 H1-C2 H1-C3  (maximum 50 interactions shown)


[Init] Current cycle: 1346 out of 6731
========================================================================================================

Net charge: 0 (F: 0, A: 0, C: 0)
Current Box:  51.66400   0.00000   0.00000 [A]
               0.00000  51.66400   0.00000 [A]
               0.00000   0.00000  51.66400 [A]
Box-lengths:  51.66400  51.66400  51.66400 Box-angles:   90.00000  90.00000  90.00000 [degrees]
Volume: 137899.94184 [A^3]

Loadings per component:
----------------------------------------------------------------------------------------------------------------------------------------------------
Component 0 (CO2), current number of integer/fractional/reaction molecules: 150/0/0, density:  79.49247 [kg/m^3]
	absolute adsorption:  18.75000 [mol/uc],         3.0439 [mol/kg],            133.9619 [mg/g]
	                                                68.2261 [cm^3 STP/g],         40.4851 [cm^3 STP/cm^3]
	excess adsorption:    18.65608 [mol/uc],         3.0287 [mol/kg],            133.2908 [mg/g]
	                                                67.8844 [cm^3 STP/g],         40.2823 [cm^3 STP/cm^3]
----------------------------------------------------------------------------------------------------------------------------------------------------
Degrees of freedom: 750 0 750 0
Number of Framework-atoms:   3392
Number of Adsorbates:         150 (150 integer, 0 fractional, 0 reaction)
Number of Cations:              0 (0 integer, 0 fractional, % reaction

Current total potential energy:           -247504.7323002882 [K]
	Current Host-Host energy:                     0.0000000000 [K]
	Current Host-Adsorbate energy:          -233935.5531024734 [K]
	Current Host-Cation energy:                   0.0000000000 [K]
	Current Adsorbate-Adsorbate energy:      -13569.1791978060 [K]
	Current Cation-Cation energy:                 0.0000000000 [K]
	Current Adsorbate-Cation energy:              0.0000000000 [K]

WARNING: THERE ARE ATOM-PAIRS WITH NO VDW INTERACTION Zn1-Zn1 Zn1-O1 Zn1-O2 Zn1-C1 Zn1-C2 Zn1-C3 Zn1-H1 O1-Zn1 O1-O2 O1-C1 O1-C2 O1-C3 O1-H1 O2-Zn1 O2-O1 O2-C1 O2-C2 O2-C3 O2-H1 C1-Zn1 C1-O1 C1-O2 C1-C2 C1-C3 C1-H1 C2-Zn1 C2-O1 C2-O2 C2-C1 C2-C3 C2-H1 C3-Zn1 C3-O1 C3-O2 C3-C1 C3-C2 C3-H1 H1-Zn1 H1-O1 H1-O2 H1-C1 H1-C2 H1-C3  (maximum 50 interactions shown)


[Init] Current cycle: 2019 out of 6731
========================================================================================================

Net charge: 0 (F: 0, A: 0, C: 0)
Current Box:  51.66400   0.00000   0.00000 [A]
               0.00000  51.66400   0.00000 [A]
               0.00000   0.00000  51.66400 [A]
Box-lengths:  51.66400  51.66400  51.66400 Box-angles:   90.00000  90.00000  90.00000 [degrees]
Volume: 137899.94184 [A^3]

Loadings per component:
----------------------------------------------------------------------------------------------------------------------------------------------------
Component 0 (CO2), current number of integer/fractional/reaction molecules: 158/0/0, density:  83.73206 [kg/m^3]
	absolute adsorption:  19.75000 [mol/uc],         3.2063 [mol/kg],            141.1065 [mg/g]
	                                                71.8648 [cm^3 STP/g],         42.6443 [cm^3 STP/cm^3]
	excess adsorption:    19.65608 [mol/uc],         3.1910 [mol/kg],            140.4354 [mg/g]
	                                                71.5231 [cm^3 STP/g],         42.4415 [cm^3 STP/cm^3]
----------------------------------------------------------------------------------------------------------------------------------------------------
Degrees of freedom: 790 0 790 0
Number of Framework-atoms:   3392
Number of Adsorbates:         158 (158 integer, 0 fractional, 0 reaction)
Number of Cations:              0 (0 integer, 0 fractional, % reaction

Current total potential energy:           -260235.7863494088 [K]
	Current Host-Host energy:                     0.0000000000 [K]
	Current Host-Adsorbate energy:          -243867.4665829197 [K]
	Current Host-Cation energy:                   0.0000000000 [K]
	Current Adsorbate-Adsorbate energy:      -16368.3197664791 [K]
	Current Cation-Cation energy:                 0.0000000000 [K]
	Current Adsorbate-Cation energy:              0.0000000000 [K]

WARNING: THERE ARE ATOM-PAIRS WITH NO VDW INTERACTION Zn1-Zn1 Zn1-O1 Zn1-O2 Zn1-C1 Zn1-C2 Zn1-C3 Zn1-H1 O1-Zn1 O1-O2 O1-C1 O1-C2 O1-C3 O1-H1 O2-Zn1 O2-O1 O2-C1 O2-C2 O2-C3 O2-H1 C1-Zn1 C1-O1 C1-O2 C1-C2 C1-C3 C1-H1 C2-Zn1 C2-O1 C2-O2 C2-C1 C2-C3 C2-H1 C3-Zn1 C3-O1 C3-O2 C3-C1 C3-C2 C3-H1 H1-Zn1 H1-O1 H1-O2 H1-C1 H1-C2 H1-C3  (maximum 50 interactions shown)


[Init] Current cycle: 2692 out of 6731
========================================================================================================

Net charge: 0 (F: 0, A: 0, C: 0)
Current Box:  51.66400   0.00000   0.00000 [A]
               0.00000  51.66400   0.00000 [A]
               0.00000   0.00000  51.66400 [A]
Box-lengths:  51.66400  51.66400  51.66400 Box-angles:   90.00000  90.00000  90.00000 [degrees]
Volume: 137899.94184 [A^3]

Loadings per component:
----------------------------------------------------------------------------------------------------------------------------------------------------
Component 0 (CO2), current number of integer/fractional/reaction molecules: 162/0/0, density:  85.85186 [kg/m^3]
	absolute adsorption:  20.25000 [mol/uc],         3.2874 [mol/kg],            144.6788 [mg/g]
	                                                73.6842 [cm^3 STP/g],         43.7239 [cm^3 STP/cm^3]
	excess adsorption:    20.15608 [mol/uc],         3.2722 [mol/kg],            144.0078 [mg/g]
	                                                73.3424 [cm^3 STP/g],         43.5211 [cm^3 STP/cm^3]
----------------------------------------------------------------------------------------------------------------------------------------------------
Degrees of freedom: 810 0 810 0
Number of Framework-atoms:   3392
Number of Adsorbates:         162 (162 integer, 0 fractional, 0 reaction)
Number of Cations:              0 (0 integer, 0 fractional, % reaction

Current total potential energy:           -278733.0670499288 [K]
	Current Host-Host energy:                     0.0000000000 [K]
	Current Host-Adsorbate energy:          -261174.7787327716 [K]
	Current Host-Cation energy:                   0.0000000000 [K]
	Current Adsorbate-Adsorbate energy:      -17558.2883171400 [K]
	Current Cation-Cation energy:                 0.0000000000 [K]
	Current Adsorbate-Cation energy:              0.0000000000 [K]

WARNING: THERE ARE ATOM-PAIRS WITH NO VDW INTERACTION Zn1-Zn1 Zn1-O1 Zn1-O2 Zn1-C1 Zn1-C2 Zn1-C3 Zn1-H1 O1-Zn1 O1-O2 O1-C1 O1-C2 O1-C3 O1-H1 O2-Zn1 O2-O1 O2-C1 O2-C2 O2-C3 O2-H1 C1-Zn1 C1-O1 C1-O2 C1-C2 C1-C3 C1-H1 C2-Zn1 C2-O1 C2-O2 C2-C1 C2-C3 C2-H1 C3-Zn1 C3-O1 C3-O2 C3-C1 C3-C2 C3-H1 H1-Zn1 H1-O1 H1-O2 H1-C1 H1-C2 H1-C3  (maximum 50 interactions shown)


[Init] Current cycle: 3365 out of 6731
========================================================================================================

Net charge: 0 (F: 0, A: 0, C: 0)
Current Box:  51.66400   0.00000   0.00000 [A]
               0.00000  51.66400   0.00000 [A]
               0.00000   0.00000  51.66400 [A]
Box-lengths:  51.66400  51.66400  51.66400 Box-angles:   90.00000  90.00000  90.00000 [degrees]
Volume: 137899.94184 [A^3]

Loadings per component:
----------------------------------------------------------------------------------------------------------------------------------------------------
Component 0 (CO2), current number of integer/fractional/reaction molecules: 131/0/0, density:  69.42342 [kg/m^3]
	absolute adsorption:  16.37500 [mol/uc],         2.6583 [mol/kg],            116.9934 [mg/g]
	                                                59.5841 [cm^3 STP/g],         35.3570 [cm^3 STP/cm^3]
	excess adsorption:    16.28108 [mol/uc],         2.6431 [mol/kg],            116.3223 [mg/g]
	                                                59.2424 [cm^3 STP/g],         35.1542 [cm^3 STP/cm^3]
----------------------------------------------------------------------------------------------------------------------------------------------------
Degrees of freedom: 655 0 655 0
Number of Framework-atoms:   3392
Number of Adsorbates:         131 (131 integer, 0 fractional, 0 reaction)
Number of Cations:              0 (0 integer, 0 fractional, % reaction

Current total potential energy:           -220968.0343204159 [K]
	Current Host-Host energy:                     0.0000000000 [K]
	Current Host-Adsorbate energy:          -210609.0456270356 [K]
	Current Host-Cation energy:                   0.0000000000 [K]
	Current Adsorbate-Adsorbate energy:      -10358.9886933646 [K]
	Current Cation-Cation energy:                 0.0000000000 [K]
	Current Adsorbate-Cation energy:              0.0000000000 [K]

WARNING: THERE ARE ATOM-PAIRS WITH NO VDW INTERACTION Zn1-Zn1 Zn1-O1 Zn1-O2 Zn1-C1 Zn1-C2 Zn1-C3 Zn1-H1 O1-Zn1 O1-O2 O1-C1 O1-C2 O1-C3 O1-H1 O2-Zn1 O2-O1 O2-C1 O2-C2 O2-C3 O2-H1 C1-Zn1 C1-O1 C1-O2 C1-C2 C1-C3 C1-H1 C2-Zn1 C2-O1 C2-O2 C2-C1 C2-C3 C2-H1 C3-Zn1 C3-O1 C3-O2 C3-C1 C3-C2 C3-H1 H1-Zn1 H1-O1 H1-O2 H1-C1 H1-C2 H1-C3  (maximum 50 interactions shown)


[Init] Current cycle: 4038 out of 6731
========================================================================================================

Net charge: 0 (F: 0, A: 0, C: 0)
Current Box:  51.66400   0.00000   0.00000 [A]
               0.00000  51.66400   0.00000 [A]
               0.00000   0.00000  51.66400 [A]
Box-lengths:  51.66400  51.66400  51.66400 Box-angles:   90.00000  90.00000  90.00000 [degrees]
Volume: 137899.94184 [A^3]

Loadings per component:
----------------------------------------------------------------------------------------------------------------------------------------------------
Component 0 (CO2), current number of integer/fractional/reaction molecules: 139/0/0, density:  73.66302 [kg/m^3]
	absolute adsorption:  17.37500 [mol/uc],         2.8207 [mol/kg],            124.1380 [mg/g]
	                                                63.2229 [cm^3 STP/g],         37.5162 [cm^3 STP/cm^3]
	excess adsorption:    17.28108 [mol/uc],         2.8054 [mol/kg],            123.4669 [mg/g]
	                                                62.8811 [cm^3 STP/g],         37.3134 [cm^3 STP/cm^3]
----------------------------------------------------------------------------------------------------------------------------------------------------
Degrees of freedom: 695 0 695 0
Number of Framework-atoms:   3392
Number of Adsorbates:         139 (139 integer, 0 fractional, 0 reaction)
Number of Cations:              0 (0 integer, 0 fractional, % reaction

Current total potential energy:           -236512.2086156899 [K]
	Current Host-Host energy:                     0.0000000000 [K]
	Current Host-Adsorbate energy:          -225679.5639526547 [K]
	Current Host-Cation energy:                   0.0000000000 [K]
	Current Adsorbate-Adsorbate energy:      -10832.6446630193 [K]
	Current Cation-Cation energy:                 0.0000000000 [K]
	Current Adsorbate-Cation energy:              0.0000000000 [K]

WARNING: THERE ARE ATOM-PAIRS WITH NO VDW INTERACTION Zn1-Zn1 Zn1-O1 Zn1-O2 Zn1-C1 Zn1-C2 Zn1-C3 Zn1-H1 O1-Zn1 O1-O2 O1-C1 O1-C2 O1-C3 O1-H1 O2-Zn1 O2-O1 O2-C1 O2-C2 O2-C3 O2-H1 C1-Zn1 C1-O1 C1-O2 C1-C2 C1-C3 C1-H1 C2-Zn1 C2-O1 C2-O2 C2-C1 C2-C3 C2-H1 C3-Zn1 C3-O1 C3-O2 C3-C1 C3-C2 C3-H1 H1-Zn1 H1-O1 H1-O2 H1-C1 H1-C2 H1-C3  (maximum 50 interactions shown)


[Init] Current cycle: 4711 out of 6731
========================================================================================================

Net charge: 0 (F: 0, A: 0, C: 0)
Current Box:  51.66400   0.00000   0.00000 [A]
               0.00000  51.66400   0.00000 [A]
               0.00000   0.00000  51.66400 [A]
Box-lengths:  51.66400  51.66400  51.66400 Box-angles:   90.00000  90.00000  90.00000 [degrees]
Volume: 137899.94184 [A^3]

Loadings per component:
----------------------------------------------------------------------------------------------------------------------------------------------------
Component 0 (CO2), current number of integer/fractional/reaction molecules: 142/0/0, density:  75.25287 [kg/m^3]
	absolute adsorption:  17.75000 [mol/uc],         2.8816 [mol/kg],            126.8172 [mg/g]
	                                                64.5874 [cm^3 STP/g],         38.3259 [cm^3 STP/cm^3]
	excess adsorption:    17.65608 [mol/uc],         2.8663 [mol/kg],            126.1462 [mg/g]
	                                                64.2456 [cm^3 STP/g],         38.1231 [cm^3 STP/cm^3]
----------------------------------------------------------------------------------------------------------------------------------------------------
Degrees of freedom: 710 0 710 0
Number of Framework-atoms:   3392
Number of Adsorbates:         142 (142 integer, 0 fractional, 0 reaction)
Number of Cations:              0 (0 integer, 0 fractional, % reaction

Current total potential energy:           -222977.6071010011 [K]
	Current Host-Host energy:                     0.0000000000 [K]
	Current Host-Adsorbate energy:          -213551.3744657176 [K]
	Current Host-Cation energy:                   0.0000000000 [K]
	Current Adsorbate-Adsorbate energy:       -9426.2326352688 [K]
	Current Cation-Cation energy:                 0.0000000000 [K]
	Current Adsorbate-Cation energy:              0.0000000000 [K]

WARNING: THERE ARE ATOM-PAIRS WITH NO VDW INTERACTION Zn1-Zn1 Zn1-O1 Zn1-O2 Zn1-C1 Zn1-C2 Zn1-C3 Zn1-H1 O1-Zn1 O1-O2 O1-C1 O1-C2 O1-C3 O1-H1 O2-Zn1 O2-O1 O2-C1 O2-C2 O2-C3 O2-H1 C1-Zn1 C1-O1 C1-O2 C1-C2 C1-C3 C1-H1 C2-Zn1 C2-O1 C2-O2 C2-C1 C2-C3 C2-H1 C3-Zn1 C3-O1 C3-O2 C3-C1 C3-C2 C3-H1 H1-Zn1 H1-O1 H1-O2 H1-C1 H1-C2 H1-C3  (maximum 50 interactions shown)


[Init] Current cycle: 5384 out of 6731
========================================================================================================

Net charge: 0 (F: 0, A: 0, C: 0)
Current Box:  51.66400   0.00000   0.00000 [A]
               0.00000  51.66400   0.00000 [A]
               0.00000   0.00000  51.66400 [A]
Box-lengths:  51.66400  51.66400  51.66400 Box-angles:   90.00000  90.00000  90.00000 [degrees]
Volume: 137899.94184 [A^3]

Loadings per component:
----------------------------------------------------------------------------------------------------------------------------------------------------
Component 0 (CO2), current number of integer/fractional/reaction molecules: 160/0/0, density:  84.79196 [kg/m^3]
	absolute adsorption:  20.00000 [mol/uc],         3.2468 [mol/kg],            142.8926 [mg/g]
	                                                72.7745 [cm^3 STP/g],         43.1841 [cm^3 STP/cm^3]
	excess adsorption:    19.90608 [mol/uc],         3.2316 [mol/kg],            142.2216 [mg/g]
	                                                72.4328 [cm^3 STP/g],         42.9813 [cm^3 STP/cm^3]
----------------------------------------------------------------------------------------------------------------------------------------------------
Degrees of freedom: 800 0 800 0
Number of Framework-atoms:   3392
Number of Adsorbates:         160 (160 integer, 0 fractional, 0 reaction)
Number of Cations:              0 (0 integer, 0 fractional, % reaction

Current total potential energy:           -263979.2222234386 [K]
	Current Host-Host energy:                     0.0000000000 [K]
	Current Host-Adsorbate energy:          -251587.3195371473 [K]
	Current Host-Cation energy:                   0.0000000000 [K]
	Current Adsorbate-Adsorbate energy:      -12391.9026862834 [K]
	Current Cation-Cation energy:                 0.0000000000 [K]
	Current Adsorbate-Cation energy:              0.0000000000 [K]

WARNING: THERE ARE ATOM-PAIRS WITH NO VDW INTERACTION Zn1-Zn1 Zn1-O1 Zn1-O2 Zn1-C1 Zn1-C2 Zn1-C3 Zn1-H1 O1-Zn1 O1-O2 O1-C1 O1-C2 O1-C3 O1-H1 O2-Zn1 O2-O1 O2-C1 O2-C2 O2-C3 O2-H1 C1-Zn1 C1-O1 C1-O2 C1-C2 C1-C3 C1-H1 C2-Zn1 C2-O1 C2-O2 C2-C1 C2-C3 C2-H1 C3-Zn1 C3-O1 C3-O2 C3-C1 C3-C2 C3-H1 H1-Zn1 H1-O1 H1-O2 H1-C1 H1-C2 H1-C3  (maximum 50 interactions shown)


[Init] Current cycle: 6057 out of 6731
========================================================================================================

Net charge: 0 (F: 0, A: 0, C: 0)
Current Box:  51.66400   0.00000   0.00000 [A]
               0.00000  51.66400   0.00000 [A]
               0.00000   0.00000  51.66400 [A]
Box-lengths:  51.66400  51.66400  51.66400 Box-angles:   90.00000  90.00000  90.00000 [degrees]
Volume: 137899.94184 [A^3]

Loadings per component:
----------------------------------------------------------------------------------------------------------------------------------------------------
Component 0 (CO2), current number of integer/fractional/reaction molecules: 123/0/0, density:  65.18382 [kg/m^3]
	absolute adsorption:  15.37500 [mol/uc],         2.4960 [mol/kg],            109.8487 [mg/g]
	                                                55.9454 [cm^3 STP/g],         33.1978 [cm^3 STP/cm^3]
	excess adsorption:    15.28108 [mol/uc],         2.4808 [mol/kg],            109.1777 [mg/g]
	                                                55.6037 [cm^3 STP/g],         32.9950 [cm^3 STP/cm^3]
----------------------------------------------------------------------------------------------------------------------------------------------------
Degrees of freedom: 615 0 615 0
Number of Framework-atoms:   3392
Number of Adsorbates:         123 (123 integer, 0 fractional, 0 reaction)
Number of Cations:              0 (0 integer, 0 fractional, % reaction

Current total potential energy:           -202666.6014074057 [K]
	Current Host-Host energy:                     0.0000000000 [K]
	Current Host-Adsorbate energy:          -195498.0697240297 [K]
	Current Host-Cation energy:                   0.0000000000 [K]
	Current Adsorbate-Adsorbate energy:       -7168.5316833682 [K]
	Current Cation-Cation energy:                 0.0000000000 [K]
	Current Adsorbate-Cation energy:              0.0000000000 [K]

WARNING: THERE ARE ATOM-PAIRS WITH NO VDW INTERACTION Zn1-Zn1 Zn1-O1 Zn1-O2 Zn1-C1 Zn1-C2 Zn1-C3 Zn1-H1 O1-Zn1 O1-O2 O1-C1 O1-C2 O1-C3 O1-H1 O2-Zn1 O2-O1 O2-C1 O2-C2 O2-C3 O2-H1 C1-Zn1 C1-O1 C1-O2 C1-C2 C1-C3 C1-H1 C2-Zn1 C2-O1 C2-O2 C2-C1 C2-C3 C2-H1 C3-Zn1 C3-O1 C3-O2 C3-C1 C3-C2 C3-H1 H1-Zn1 H1-O1 H1-O2 H1-C1 H1-C2 H1-C3  (maximum 50 interactions shown)


[Init] Current cycle: 6730 out of 6731
========================================================================================================

Net charge: 0 (F: 0, A: 0, C: 0)
Current Box:  51.66400   0.00000   0.00000 [A]
               0.00000  51.66400   0.00000 [A]
               0.00000   0.00000  51.66400 [A]
Box-lengths:  51.66400  51.66400  51.66400 Box-angles:   90.00000  90.00000  90.00000 [degrees]
Volume: 137899.94184 [A^3]

Loadings per component:
----------------------------------------------------------------------------------------------------------------------------------------------------
Component 0 (CO2), current number of integer/fractional/reaction molecules: 156/0/0, density:  82.67216 [kg/m^3]
	absolute adsorption:  19.50000 [mol/uc],         3.1657 [mol/kg],            139.3203 [mg/g]
	                                                70.9552 [cm^3 STP/g],         42.1045 [cm^3 STP/cm^3]
	excess adsorption:    19.40608 [mol/uc],         3.1504 [mol/kg],            138.6493 [mg/g]
	                                                70.6134 [cm^3 STP/g],         41.9017 [cm^3 STP/cm^3]
----------------------------------------------------------------------------------------------------------------------------------------------------
Degrees of freedom: 780 0 780 0
Number of Framework-atoms:   3392
Number of Adsorbates:         156 (156 integer, 0 fractional, 0 reaction)
Number of Cations:              0 (0 integer, 0 fractional, % reaction

Current total potential energy:           -253982.6234651987 [K]
	Current Host-Host energy:                     0.0000000000 [K]
	Current Host-Adsorbate energy:          -236387.6007495224 [K]
	Current Host-Cation energy:                   0.0000000000 [K]
	Current Adsorbate-Adsorbate energy:      -17595.0227156709 [K]
	Current Cation-Cation energy:                 0.0000000000 [K]
	Current Adsorbate-Cation energy:              0.0000000000 [K]

WARNING: THERE ARE ATOM-PAIRS WITH NO VDW INTERACTION Zn1-Zn1 Zn1-O1 Zn1-O2 Zn1-C1 Zn1-C2 Zn1-C3 Zn1-H1 O1-Zn1 O1-O2 O1-C1 O1-C2 O1-C3 O1-H1 O2-Zn1 O2-O1 O2-C1 O2-C2 O2-C3 O2-H1 C1-Zn1 C1-O1 C1-O2 C1-C2 C1-C3 C1-H1 C2-Zn1 C2-O1 C2-O2 C2-C1 C2-C3 C2-H1 C3-Zn1 C3-O1 C3-O2 C3-C1 C3-C2 C3-H1 H1-Zn1 H1-O1 H1-O2 H1-C1 H1-C2 H1-C3  (maximum 50 interactions shown)


Average Properties at Current cycle: 0 out of 67312
========================================================================================

Framework surface area:       0.0000000000 [m^2/g]        0.0000000000 [m^2/cm^3]       0.0000000000 [A^2]
	Framework 0 individual surface area:       0.0000000000 [m^2/g]        0.0000000000 [m^2/cm^3]       0.0000000000 [A^2]
	Cation surface area:                       0.0000000000 [m^2/g]        0.0000000000 [m^2/cm^3]       0.0000000000 [A^2]
Compressibility:       0.0000000000 [-]
Henry coefficients
	Component 0: 0 [mol/kg/Pa] (Rosenbluth factor new: 0 [-])
Energy <U_gh>_1-<U_h>_0 from Widom


Current cycle: 0 out of 67312
========================================================================================================

Net charge: 0 (F: 0, A: 0, C: 0)
Current Box:  51.66400   0.00000   0.00000 [A]   Average Box:  51.66400   0.00000   0.00000 [A]
               0.00000  51.66400   0.00000 [A]                  0.00000  51.66400   0.00000 [A]
               0.00000   0.00000  51.66400 [A]                  0.00000   0.00000  51.66400 [A]
Box-lengths:   51.66400  51.66400  51.66400 [A] Average:  51.66400  51.66400  51.66400 [A]
Box-angles:   90.00000  90.00000  90.00000 [degrees] Average:  90.00000  90.00000  90.00000 [degrees]
Volume: 137899.94184 [A^3] Average Volume: 137899.94184 [A^3]

Loadings per component:
----------------------------------------------------------------------------------------------------------------------------------------------------
Component 0 (CO2), current number of integer/fractional/reaction molecules: 147/0/0 (avg. 147.00000), density:  77.90262 (avg.  77.90262) [kg/m^3]
	absolute adsorption:  18.37500 (avg.  18.37500) [mol/uc],   2.9830315349 (avg.   2.9830315349) [mol/kg], 131.2826212441 (avg. 131.2826212441) [mg/g]
	                      66.8615964773 (avg.  66.8615964773) [cm^3 STP/g],   39.6753857538 (avg.  39.6753857538) [cm^3 STP/cm^3]
	excess adsorption:    18.2810768510 (avg.  18.2810768510) [mol/uc],   2.9677838769 (avg.   2.9677838769) [mol/kg], 130.6115748664 (avg. 130.6115748664) [mg/g]
	                      66.5198358413 (avg.  66.5198358413) [cm^3 STP/g],   39.4725864522 (avg.  39.4725864522) [cm^3 STP/cm^3]
----------------------------------------------------------------------------------------------------------------------------------------------------
Degrees of freedom: 735 0 735 0
Number of Framework-atoms:   3392
Number of Adsorbates:         147 (147 integer, 0 fractional, 0 reaction)
Number of Cations:              0 (0 integer, 0 fractional, 0 reaction)

Current total potential energy:           -241642.4866027735 [K]  (avg.     -241642.4866027735)
	Current Host-Host energy:                     0.0000000000 [K]  (avg.           0.0000000000)
	Current Host-Adsorbate energy:          -226755.0157057811 [K]  (avg.     -226755.0157057811)
	Current Host-Cation energy:                   0.0000000000 [K]  (avg.           0.0000000000)
	Current Adsorbate-Adsorbate energy:      -14887.4708969924 [K]  (avg.      -14887.4708969924)
	Current Cation-Cation energy:                 0.0000000000 [K]  (avg.           0.0000000000)
	Current Adsorbate-Cation energy:              0.0000000000 [K]  (avg.           0.0000000000)

WARNING: THERE ARE ATOM-PAIRS WITH NO VDW INTERACTION Zn1-Zn1 Zn1-O1 Zn1-O2 Zn1-C1 Zn1-C2 Zn1-C3 Zn1-H1 O1-Zn1 O1-O2 O1-C1 O1-C2 O1-C3 O1-H1 O2-Zn1 O2-O1 O2-C1 O2-C2 O2-C3 O2-H1 C1-Zn1 C1-O1 C1-O2 C1-C2 C1-C3 C1-H1 C2-Zn1 C2-O1 C2-O2 C2-C1 C2-C3 C2-H1 C3-Zn1 C3-O1 C3-O2 C3-C1 C3-C2 C3-H1 H1-Zn1 H1-O1 H1-O2 H1-C1 H1-C2 H1-C3  (maximum 50 interactions shown)


Average Properties at Current cycle: 67 out of 67312
========================================================================================

Framework surface area:       0.0000000000 [m^2/g]        0.0000000000 [m^2/cm^3]       0.0000000000 [A^2]
	Framework 0 individual surface area:       0.0000000000 [m^2/g]        0.0000000000 [m^2/cm^3]       0.0000000000 [A^2]
	Cation surface area:                       0.0000000000 [m^2/g]        0.0000000000 [m^2/cm^3]       0.0000000000 [A^2]
Compressibility:       0.0000000000 [-]
Henry coefficients
	Component 0: 0 [mol/kg/Pa] (Rosenbluth factor new: 0 [-])
Energy <U_gh>_1-<U_h>_0 from Widom


Average Properties at Current cycle: 134 out of 67312
========================================================================================

Framework surface area:       0.0000000000 [m^2/g]        0.0000000000 [m^2/cm^3]       0.0000000000 [A^2]
	Framework 0 individual surface area:       0.0000000000 [m^2/g]        0.0000000000 [m^2/cm^3]       0.0000000000 [A^2]
	Cation surface area:                       0.0000000000 [m^2/g]        0.0000000000 [m^2/cm^3]       0.0000000000 [A^2]
Compressibility:       0.0000000000 [-]
Henry coefficients
	Component 0: 0 [mol/kg/Pa] (Rosenbluth factor new: 0 [-])
Energy <U_gh>_1-<U_h>_0 from Widom


Average Properties at Current cycle: 201 out of 67312
========================================================================================

Framework surface area:       0.0000000000 [m^2/g]        0.0000000000 [m^2/cm^3]       0.0000000000 [A^2]
	Framework 0 individual surface area:       0.0000000000 [m^2/g]        0.0000000000 [m^2/cm^3]       0.0000000000 [A^2]
	Cation surface area:                       0.0000000000 [m^2/g]        0.0000000000 [m^2/cm^3]       0.0000000000 [A^2]
Compressibility:       0.0000000000 [-]
Henry coefficients
	Component 0: 0 [mol/kg/Pa] (Rosenbluth factor new: 0 [-])
Energy <U_gh>_1-<U_h>_0 from Widom


Average Properties at Current cycle: 268 out of 67312
========================================================================================

Framework surface area:       0.0000000000 [m^2/g]        0.0000000000 [m^2/cm^3]       0.0000000000 [A^2]
	Framework 0 individual surface area:       0.0000000000 [m^2/g]        0.0000000000 [m^2/cm^3]       0.0000000000 [A^2]
	Cation surface area:                       0.0000000000 [m^2/g]        0.0000000000 [m^2/cm^3]       0.0000000000 [A^2]
Compressibility:       0.0000000000 [-]
Henry coefficients
	Component 0: 0 [mol/kg/Pa] (Rosenbluth factor new: 0 [-])
Energy <U_gh>_1-<U_h>_0 from Widom


Average Properties at Current cycle: 335 out of 67312
========================================================================================

Framework surface area:       0.0000000000 [m^2/g]        0.0000000000 [m^2/cm^3]       0.0000000000 [A^2]
	Framework 0 individual surface area:       0.0000000000 [m^2/g]        0.0000000000 [m^2/cm^3]       0.0000000000 [A^2]
	Cation surface area:                       0.0000000000 [m^2/g]        0.0000000000 [m^2/cm^3]       0.0000000000 [A^2]
Compressibility:       0.0000000000 [-]
Henry coefficients
	Component 0: 0 [mol/kg/Pa] (Rosenbluth factor new: 0 [-])
Energy <U_gh>_1-<U_h>_0 from Widom


Average Properties at Current cycle: 402 out of 67312
========================================================================================

Framework surface area:       0.0000000000 [m^2/g]        0.0000000000 [m^2/cm^3]       0.0000000000 [A^2]
	Framework 0 individual surface area:       0.0000000000 [m^2/g]        0.0000000000 [m^2/cm^3]       0.0000000000 [A^2]
	Cation surface area:                       0.0000000000 [m^2/g]        0.0000000000 [m^2/cm^3]       0.0000000000 [A^2]
Compressibility:       0.0000000000 [-]
Henry coefficients
	Component 0: 0 [mol/kg/Pa] (Rosenbluth factor new: 0 [-])
Energy <U_gh>_1-<U_h>_0 from Widom


Average Properties at Current cycle: 469 out of 67312
========================================================================================

Framework surface area:       0.0000000000 [m^2/g]        0.0000000000 [m^2/cm^3]       0.0000000000 [A^2]
	Framework 0 individual surface area:       0.0000000000 [m^2/g]        0.0000000000 [m^2/cm^3]       0.0000000000 [A^2]
	Cation surface area:                       0.0000000000 [m^2/g]        0.0000000000 [m^2/cm^3]       0.0000000000 [A^2]
Compressibility:       0.0000000000 [-]
Henry coefficients
	Component 0: 0 [mol/kg/Pa] (Rosenbluth factor new: 0 [-])
Energy <U_gh>_1-<U_h>_0 from Widom


Average Properties at Current cycle: 536 out of 67312
========================================================================================

Framework surface area:       0.0000000000 [m^2/g]        0.0000000000 [m^2/cm^3]       0.0000000000 [A^2]
	Framework 0 individual surface area:       0.0000000000 [m^2/g]        0.0000000000 [m^2/cm^3]       0.0000000000 [A^2]
	Cation surface area:                       0.0000000000 [m^2/g]        0.0000000000 [m^2/cm^3]       0.0000000000 [A^2]
Compressibility:       0.0000000000 [-]
Henry coefficients
	Component 0: 0 [mol/kg/Pa] (Rosenbluth factor new: 0 [-])
Energy <U_gh>_1-<U_h>_0 from Widom


Average Properties at Current cycle: 603 out of 67312
========================================================================================

Framework surface area:       0.0000000000 [m^2/g]        0.0000000000 [m^2/cm^3]       0.0000000000 [A^2]
	Framework 0 individual surface area:       0.0000000000 [m^2/g]        0.0000000000 [m^2/cm^3]       0.0000000000 [A^2]
	Cation surface area:                       0.0000000000 [m^2/g]        0.0000000000 [m^2/cm^3]       0.0000000000 [A^2]
Compressibility:       0.0000000000 [-]
Henry coefficients
	Component 0: 0 [mol/kg/Pa] (Rosenbluth factor new: 0 [-])
Energy <U_gh>_1-<U_h>_0 from Widom


Average Properties at Current cycle: 670 out of 67312
========================================================================================

Framework surface area:       0.0000000000 [m^2/g]        0.0000000000 [m^2/cm^3]       0.0000000000 [A^2]
	Framework 0 individual surface area:       0.0000000000 [m^2/g]        0.0000000000 [m^2/cm^3]       0.0000000000 [A^2]
	Cation surface area:                       0.0000000000 [m^2/g]        0.0000000000 [m^2/cm^3]       0.0000000000 [A^2]
Compressibility:       0.0000000000 [-]
Henry coefficients
	Component 0: 0 [mol/kg/Pa] (Rosenbluth factor new: 0 [-])
Energy <U_gh>_1-<U_h>_0 from Widom


Current cycle: 673 out of 67312
========================================================================================================

Net charge: 0 (F: 0, A: 0, C: 0)
Current Box:  51.66400   0.00000   0.00000 [A]   Average Box:  51.66400   0.00000   0.00000 [A]
               0.00000  51.66400   0.00000 [A]                  0.00000  51.66400   0.00000 [A]
               0.00000   0.00000  51.66400 [A]                  0.00000   0.00000  51.66400 [A]
Box-lengths:   51.66400  51.66400  51.66400 [A] Average:  51.66400  51.66400  51.66400 [A]
Box-angles:   90.00000  90.00000  90.00000 [degrees] Average:  90.00000  90.00000  90.00000 [degrees]
Volume: 137899.94184 [A^3] Average Volume: 137899.94184 [A^3]

Loadings per component:
----------------------------------------------------------------------------------------------------------------------------------------------------
Component 0 (CO2), current number of integer/fractional/reaction molecules: 130/0/0 (avg. 144.22107), density:  68.89347 (avg.  76.42992) [kg/m^3]
	absolute adsorption:  16.25000 (avg.  18.02763) [mol/uc],   2.6380550989 (avg.   2.9266394189) [mol/kg], 116.1002772907 (avg. 128.8008154993) [mg/g]
	                      59.1293030071 (avg.  65.5976249579) [cm^3 STP/g],   35.0870758367 (avg.  38.9253504532) [cm^3 STP/cm^3]
	excess adsorption:    16.1560768510 (avg.  17.9337103822) [mol/uc],   2.6228074409 (avg.   2.9113917610) [mol/kg], 115.4292309130 (avg. 128.1297691215) [mg/g]
	                      58.7875423712 (avg.  65.2558643219) [cm^3 STP/g],   34.8842765351 (avg.  38.7225511516) [cm^3 STP/cm^3]
----------------------------------------------------------------------------------------------------------------------------------------------------
Degrees of freedom: 650 0 650 0
Number of Framework-atoms:   3392
Number of Adsorbates:         130 (130 integer, 0 fractional, 0 reaction)
Number of Cations:              0 (0 integer, 0 fractional, 0 reaction)

Current total potential energy:           -218406.6381549879 [K]  (avg.     -239913.4865294269)
	Current Host-Host energy:                     0.0000000000 [K]  (avg.           0.0000000000)
	Current Host-Adsorbate energy:          -209524.0129495703 [K]  (avg.     -228118.9779173598)
	Current Host-Cation energy:                   0.0000000000 [K]  (avg.           0.0000000000)
	Current Adsorbate-Adsorbate energy:       -8882.6252054224 [K]  (avg.      -11794.5086120699)
	Current Cation-Cation energy:                 0.0000000000 [K]  (avg.           0.0000000000)
	Current Adsorbate-Cation energy:              0.0000000000 [K]  (avg.           0.0000000000)

WARNING: THERE ARE ATOM-PAIRS WITH NO VDW INTERACTION Zn1-Zn1 Zn1-O1 Zn1-O2 Zn1-C1 Zn1-C2 Zn1-C3 Zn1-H1 O1-Zn1 O1-O2 O1-C1 O1-C2 O1-C3 O1-H1 O2-Zn1 O2-O1 O2-C1 O2-C2 O2-C3 O2-H1 C1-Zn1 C1-O1 C1-O2 C1-C2 C1-C3 C1-H1 C2-Zn1 C2-O1 C2-O2 C2-C1 C2-C3 C2-H1 C3-Zn1 C3-O1 C3-O2 C3-C1 C3-C2 C3-H1 H1-Zn1 H1-O1 H1-O2 H1-C1 H1-C2 H1-C3  (maximum 50 interactions shown)


Average Properties at Current cycle: 737 out of 67312
========================================================================================

Framework surface area:       0.0000000000 [m^2/g]        0.0000000000 [m^2/cm^3]       0.0000000000 [A^2]
[...]
	------------------------------------------------------------------------------
	Average              0.00000 [K] +/-            0.00000 [K]

Average Adsorbate Intra charge-bonddipole Coulomb energy:
=======================================
	Block[ 0]            0.00000 [K]
	Block[ 1]            0.00000 [K]
	Block[ 2]            0.00000 [K]
	Block[ 3]            0.00000 [K]
	Block[ 4]            0.00000 [K]
	------------------------------------------------------------------------------
	Average              0.00000 [K] +/-            0.00000 [K]

Average Adsorbate Intra bonddipole-bonddipole Coulomb energy:
=======================================
	Block[ 0]            0.00000 [K]
	Block[ 1]            0.00000 [K]
	Block[ 2]            0.00000 [K]
	Block[ 3]            0.00000 [K]
	Block[ 4]            0.00000 [K]
	------------------------------------------------------------------------------
	Average              0.00000 [K] +/-            0.00000 [K]

Average Cation Bond stretch energy:
=================================
	Block[ 0]            0.00000 [K]
	Block[ 1]            0.00000 [K]
	Block[ 2]            0.00000 [K]
	Block[ 3]            0.00000 [K]
	Block[ 4]            0.00000 [K]
	------------------------------------------------------------------------------
	Average              0.00000 [K] +/-            0.00000 [K]

Average Cation UreyBradley stretch energy:
==========================================
	Block[ 0]            0.00000 [K]
	Block[ 1]            0.00000 [K]
	Block[ 2]            0.00000 [K]
	Block[ 3]            0.00000 [K]
	Block[ 4]            0.00000 [K]
	------------------------------------------------------------------------------
	Average              0.00000 [K] +/-            0.00000 [K]

Average Cation Bend angle energy:
=================================
	Block[ 0]            0.00000 [K]
	Block[ 1]            0.00000 [K]
	Block[ 2]            0.00000 [K]
	Block[ 3]            0.00000 [K]
	Block[ 4]            0.00000 [K]
	------------------------------------------------------------------------------
	Average              0.00000 [K] +/-            0.00000 [K]

Average Cation Bend angle inversion energy:
===========================================
	Block[ 0]            0.00000 [K]
	Block[ 1]            0.00000 [K]
	Block[ 2]            0.00000 [K]
	Block[ 3]            0.00000 [K]
	Block[ 4]            0.00000 [K]
	------------------------------------------------------------------------------
	Average              0.00000 [K] +/-            0.00000 [K]

Average Cation Torsion energy:
==============================
	Block[ 0]            0.00000 [K]
	Block[ 1]            0.00000 [K]
	Block[ 2]            0.00000 [K]
	Block[ 3]            0.00000 [K]
	Block[ 4]            0.00000 [K]
	------------------------------------------------------------------------------
	Average              0.00000 [K] +/-            0.00000 [K]

Average Cation Improper Torsion energy:
=======================================
	Block[ 0]            0.00000 [K]
	Block[ 1]            0.00000 [K]
	Block[ 2]            0.00000 [K]
	Block[ 3]            0.00000 [K]
	Block[ 4]            0.00000 [K]
	------------------------------------------------------------------------------
	Average              0.00000 [K] +/-            0.00000 [K]

Average Cation Bond-Bond cross term energy:
=================================================
	Block[ 0]            0.00000 [K]
	Block[ 1]            0.00000 [K]
	Block[ 2]            0.00000 [K]
	Block[ 3]            0.00000 [K]
	Block[ 4]            0.00000 [K]
	------------------------------------------------------------------------------
	Average              0.00000 [K] +/-            0.00000 [K]

Average Cation Bend-Bend cross term energy:
===========================================
	Block[ 0]            0.00000 [K]
	Block[ 1]            0.00000 [K]
	Block[ 2]            0.00000 [K]
	Block[ 3]            0.00000 [K]
	Block[ 4]            0.00000 [K]
	------------------------------------------------------------------------------
	Average              0.00000 [K] +/-            0.00000 [K]

Average Cation Bond-Bend cross term energy:
==============================================
	Block[ 0]            0.00000 [K]
	Block[ 1]            0.00000 [K]
	Block[ 2]            0.00000 [K]
	Block[ 3]            0.00000 [K]
	Block[ 4]            0.00000 [K]
	------------------------------------------------------------------------------
	Average              0.00000 [K] +/-            0.00000 [K]

Average Cation Bond-Torsion cross term energy:
==============================================
	Block[ 0]            0.00000 [K]
	Block[ 1]            0.00000 [K]
	Block[ 2]            0.00000 [K]
	Block[ 3]            0.00000 [K]
	Block[ 4]            0.00000 [K]
	------------------------------------------------------------------------------
	Average              0.00000 [K] +/-            0.00000 [K]

Average Cation Bend-Torsion cross term energy:
==============================================
	Block[ 0]            0.00000 [K]
	Block[ 1]            0.00000 [K]
	Block[ 2]            0.00000 [K]
	Block[ 3]            0.00000 [K]
	Block[ 4]            0.00000 [K]
	------------------------------------------------------------------------------
	Average              0.00000 [K] +/-            0.00000 [K]

Average Cation Intra Van der Waals energy:
==========================================
	Block[ 0]            0.00000 [K]
	Block[ 1]            0.00000 [K]
	Block[ 2]            0.00000 [K]
	Block[ 3]            0.00000 [K]
	Block[ 4]            0.00000 [K]
	------------------------------------------------------------------------------
	Average              0.00000 [K] +/-            0.00000 [K]

Average Cation Intra charge-charge Coulomb energy:
====================================
	Block[ 0]            0.00000 [K]
	Block[ 1]            0.00000 [K]
	Block[ 2]            0.00000 [K]
	Block[ 3]            0.00000 [K]
	Block[ 4]            0.00000 [K]
	------------------------------------------------------------------------------
	Average              0.00000 [K] +/-            0.00000 [K]

Average Cation Intra charge-bonddipole Coulomb energy:
====================================
	Block[ 0]            0.00000 [K]
	Block[ 1]            0.00000 [K]
	Block[ 2]            0.00000 [K]
	Block[ 3]            0.00000 [K]
	Block[ 4]            0.00000 [K]
	------------------------------------------------------------------------------
	Average              0.00000 [K] +/-            0.00000 [K]

Average Cation Intra bonddipole-bonddipole Coulomb energy:
====================================
	Block[ 0]            0.00000 [K]
	Block[ 1]            0.00000 [K]
	Block[ 2]            0.00000 [K]
	Block[ 3]            0.00000 [K]
	Block[ 4]            0.00000 [K]
	------------------------------------------------------------------------------
	Average              0.00000 [K] +/-            0.00000 [K]

Average Host-Host energy:
=========================
	Block[ 0] 0.00000            Van der Waals: 0.00000            Coulomb: 0.00000            [K]
	Block[ 1] 0.00000            Van der Waals: 0.00000            Coulomb: 0.00000            [K]
	Block[ 2] 0.00000            Van der Waals: 0.00000            Coulomb: 0.00000            [K]
	Block[ 3] 0.00000            Van der Waals: 0.00000            Coulomb: 0.00000            [K]
	Block[ 4] 0.00000            Van der Waals: 0.00000            Coulomb: 0.00000            [K]
	------------------------------------------------------------------------------
	Average   0.00000            Van der Waals: 0.000000           Coulomb: 0.00000            [K]
	      +/- 0.00000                       +/- 0.000000                +/- 0.00000            [K]

Average Adsorbate-Adsorbate energy:
===================================
	Block[ 0] -12672.76989       Van der Waals: -12672.76989       Coulomb: 0.00000            [K]
	Block[ 1] -12686.73695       Van der Waals: -12686.73695       Coulomb: 0.00000            [K]
	Block[ 2] -12693.46316       Van der Waals: -12693.46316       Coulomb: 0.00000            [K]
	Block[ 3] -12776.92993       Van der Waals: -12776.92993       Coulomb: 0.00000            [K]
	Block[ 4] -12709.59256       Van der Waals: -12709.59256       Coulomb: 0.00000            [K]
	------------------------------------------------------------------------------
	Average   -12707.89850       Van der Waals: -12707.898500      Coulomb: 0.00000            [K]
	      +/- 72.98448                      +/- 72.984479               +/- 0.00000            [K]

Average Cation-Cation energy:
=============================
	Block[ 0] 0.00000            Van der Waals: 0.00000            Coulomb: 0.00000            [K]
	Block[ 1] 0.00000            Van der Waals: 0.00000            Coulomb: 0.00000            [K]
	Block[ 2] 0.00000            Van der Waals: 0.00000            Coulomb: 0.00000            [K]
	Block[ 3] 0.00000            Van der Waals: 0.00000            Coulomb: 0.00000            [K]
	Block[ 4] 0.00000            Van der Waals: 0.00000            Coulomb: 0.00000            [K]
	------------------------------------------------------------------------------
	Average   0.00000            Van der Waals: 0.000000           Coulomb: 0.00000            [K]
	      +/- 0.00000                       +/- 0.000000                +/- 0.00000            [K]

Average Host-Adsorbate energy:
==============================
	Block[ 0] -231291.30230      Van der Waals: -231291.30230      Coulomb: 0.00000            [K]
	Block[ 1] -231420.17781      Van der Waals: -231420.17781      Coulomb: 0.00000            [K]
	Block[ 2] -231268.15289      Van der Waals: -231268.15289      Coulomb: 0.00000            [K]
	Block[ 3] -232169.43279      Van der Waals: -232169.43279      Coulomb: 0.00000            [K]
	Block[ 4] -231999.73232      Van der Waals: -231999.73232      Coulomb: 0.00000            [K]
	------------------------------------------------------------------------------
	Average   -231629.75962      Van der Waals: -231629.759623     Coulomb: 0.00000            [K]
	      +/- 757.55620                     +/- 757.556199              +/- 0.00000            [K]

Average Host-Cation energy:
===========================
	Block[ 0] 0.00000            Van der Waals: 0.00000            Coulomb: 0.00000            [K]
	Block[ 1] 0.00000            Van der Waals: 0.00000            Coulomb: 0.00000            [K]
	Block[ 2] 0.00000            Van der Waals: 0.00000            Coulomb: 0.00000            [K]
	Block[ 3] 0.00000            Van der Waals: 0.00000            Coulomb: 0.00000            [K]
	Block[ 4] 0.00000            Van der Waals: 0.00000            Coulomb: 0.00000            [K]
	------------------------------------------------------------------------------
	Average   0.00000            Van der Waals: 0.000000           Coulomb: 0.00000            [K]
	      +/- 0.00000                       +/- 0.000000                +/- 0.00000            [K]

Average Adsorbate-Cation energy:
================================
	Block[ 0] 0.00000            Van der Waals: 0.00000            Coulomb: 0.00000            [K]
	Block[ 1] 0.00000            Van der Waals: 0.00000            Coulomb: 0.00000            [K]
	Block[ 2] 0.00000            Van der Waals: 0.00000            Coulomb: 0.00000            [K]
	Block[ 3] 0.00000            Van der Waals: 0.00000            Coulomb: 0.00000            [K]
	Block[ 4] 0.00000            Van der Waals: 0.00000            Coulomb: 0.00000            [K]
	------------------------------------------------------------------------------
	Average   0.00000            Van der Waals: 0.000000           Coulomb: 0.00000            [K]
	      +/- 0.00000                       +/- 0.000000                +/- 0.00000            [K]

Host polarization energy:
=======================
	Block[ 0]            0.00000 [K]
	Block[ 1]            0.00000 [K]
	Block[ 2]            0.00000 [K]
	Block[ 3]            0.00000 [K]
	Block[ 4]            0.00000 [K]
	------------------------------------------------------------------------------
	Average              0.00000 [K] +/-            0.00000 [K]

Adsorbate polarization energy:
=======================
	Block[ 0]            0.00000 [K]
	Block[ 1]            0.00000 [K]
	Block[ 2]            0.00000 [K]
	Block[ 3]            0.00000 [K]
	Block[ 4]            0.00000 [K]
	------------------------------------------------------------------------------
	Average              0.00000 [K] +/-            0.00000 [K]

Cation polarization energy:
=======================
	Block[ 0]            0.00000 [K]
	Block[ 1]            0.00000 [K]
	Block[ 2]            0.00000 [K]
	Block[ 3]            0.00000 [K]
	Block[ 4]            0.00000 [K]
	------------------------------------------------------------------------------
	Average              0.00000 [K] +/-            0.00000 [K]

Host back-polarization energy:
=======================
	Block[ 0]            0.00000 [K]
	Block[ 1]            0.00000 [K]
	Block[ 2]            0.00000 [K]
	Block[ 3]            0.00000 [K]
	Block[ 4]            0.00000 [K]
	------------------------------------------------------------------------------
	Average              0.00000 [K] +/-            0.00000 [K]

Adsorbate back-polarization energy:
=======================
	Block[ 0]            0.00000 [K]
	Block[ 1]            0.00000 [K]
	Block[ 2]            0.00000 [K]
	Block[ 3]            0.00000 [K]
	Block[ 4]            0.00000 [K]
	------------------------------------------------------------------------------
	Average              0.00000 [K] +/-            0.00000 [K]

Cation back-polarization energy:
=======================
	Block[ 0]            0.00000 [K]
	Block[ 1]            0.00000 [K]
	Block[ 2]            0.00000 [K]
	Block[ 3]            0.00000 [K]
	Block[ 4]            0.00000 [K]
	------------------------------------------------------------------------------
	Average              0.00000 [K] +/-            0.00000 [K]

Tail-correction energy:
=======================
	Block[ 0]            0.00000 [K]
	Block[ 1]            0.00000 [K]
	Block[ 2]            0.00000 [K]
	Block[ 3]            0.00000 [K]
	Block[ 4]            0.00000 [K]
	------------------------------------------------------------------------------
	Average              0.00000 [K] +/-            0.00000 [K]

Distance-constraints energy:
=======================
	Block[ 0]            0.00000 [K]
	Block[ 1]            0.00000 [K]
	Block[ 2]            0.00000 [K]
	Block[ 3]            0.00000 [K]
	Block[ 4]            0.00000 [K]
	------------------------------------------------------------------------------
	Average              0.00000 [K] +/-            0.00000 [K]

Angle-constraints energy:
=======================
	Block[ 0]            0.00000 [K]
	Block[ 1]            0.00000 [K]
	Block[ 2]            0.00000 [K]
	Block[ 3]            0.00000 [K]
	Block[ 4]            0.00000 [K]
	------------------------------------------------------------------------------
	Average              0.00000 [K] +/-            0.00000 [K]

Dihedral-constraints energy:
=======================
	Block[ 0]            0.00000 [K]
	Block[ 1]            0.00000 [K]
	Block[ 2]            0.00000 [K]
	Block[ 3]            0.00000 [K]
	Block[ 4]            0.00000 [K]
	------------------------------------------------------------------------------
	Average              0.00000 [K] +/-            0.00000 [K]

Inversion-bend constraints energy:
=======================
	Block[ 0]            0.00000 [K]
	Block[ 1]            0.00000 [K]
	Block[ 2]            0.00000 [K]
	Block[ 3]            0.00000 [K]
	Block[ 4]            0.00000 [K]
	------------------------------------------------------------------------------
	Average              0.00000 [K] +/-            0.00000 [K]

Out-of-plane-distance constraints energy:
=======================
	Block[ 0]            0.00000 [K]
	Block[ 1]            0.00000 [K]
	Block[ 2]            0.00000 [K]
	Block[ 3]            0.00000 [K]
	Block[ 4]            0.00000 [K]
	------------------------------------------------------------------------------
	Average              0.00000 [K] +/-            0.00000 [K]

Exclusion-constraints energy:
=======================
	Block[ 0]            0.00000 [K]
	Block[ 1]            0.00000 [K]
	Block[ 2]            0.00000 [K]
	Block[ 3]            0.00000 [K]
	Block[ 4]            0.00000 [K]
	------------------------------------------------------------------------------
	Average              0.00000 [K] +/-            0.00000 [K]

Total energy:
=============
	Block[ 0]      -243964.07220 [K]
	Block[ 1]      -244106.91477 [K]
	Block[ 2]      -243961.61605 [K]
	Block[ 3]      -244946.36272 [K]
	Block[ 4]      -244709.32488 [K]
	------------------------------------------------------------------------------
	Average        -244337.65812 [K] +/-          821.15726 [K]

Number of molecules:
====================

Component 0 [CO2]
-------------------------------------------------------------
	Block[ 0] 147.62480          [-]
	Block[ 1] 147.75940          [-]
	Block[ 2] 147.70059          [-]
	Block[ 3] 148.20606          [-]
	Block[ 4] 148.14224          [-]
	------------------------------------------------------------------------------
	Average                                    147.8866165083 +/-       0.4789416444 [-]
	Average loading absolute [molecules/unit cell]       18.4858270635 +/-       0.0598677056 [-]
	Average loading absolute [mol/kg framework]          3.0010234057 +/-       0.0097190342 [-]
	Average loading absolute [milligram/gram framework]        132.0744398784 +/-       0.4277327517 [-]
	Average loading absolute [cm^3 (STP)/gr framework]         67.2648658324 +/-       0.2178421970 [-]
	Average loading absolute [cm^3 (STP)/cm^3 framework]         39.9146840666 +/-       0.1292666292 [-]

	Block[ 0] 147.62480          [-]
	Block[ 1] 147.75940          [-]
	Block[ 2] 147.70059          [-]
	Block[ 3] 148.20606          [-]
	Block[ 4] 148.14224          [-]
	------------------------------------------------------------------------------
	Average                                    147.1352313166 +/-       0.4789416445 [-]
	Average loading excess [molecules/unit cell]       18.3919039146 +/-       0.0598677056 [-]
	Average loading excess [mol/kg framework]          2.9857757477 +/-       0.0097190342 [-]
	Average loading excess [milligram/gram framework]        131.4033935007 +/-       0.4277327517 [-]
	Average loading excess [cm^3 (STP)/gr framework]         66.9231051965 +/-       0.2178421971 [-]
	Average loading excess [cm^3 (STP)/cm^3 framework]         39.7118847650 +/-       0.1292666292 [-]


Average Widom Rosenbluth factor:
================================
	Block[ 0] 0 [-]
	Block[ 1] 0 [-]
	Block[ 2] 0 [-]
	Block[ 3] 0 [-]
	Block[ 4] 0 [-]
	------------------------------------------------------------------------------
	[CO2] Average Widom:   0 +/- 0.000000 [-]

Average Henry coefficient:
==========================
	Block[ 0] 0 [mol/kg/Pa]
	Block[ 1] 0 [mol/kg/Pa]
	Block[ 2] 0 [mol/kg/Pa]
	Block[ 3] 0 [mol/kg/Pa]
	Block[ 4] 0 [mol/kg/Pa]
	------------------------------------------------------------------------------
	[CO2] Average Henry coefficient:  0 +/- 0 [mol/kg/Pa]

Average adsorption energy <U_gh>_1-<U_h>_0 obtained from Widom-insertion:
(Note: the total heat of adsorption is dH=<U_gh>_1-<U_h>_0 - <U_g> - RT)
=========================================================================

Simulation finished,  1 warnings
WARNING: THERE ARE ATOM-PAIRS WITH NO VDW INTERACTION Zn1-Zn1 Zn1-O1 Zn1-O2 Zn1-C1 Zn1-C2 Zn1-C3 Zn1-H1 O1-Zn1 O1-O2 O1-C1 O1-C2 O1-C3 O1-H1 O2-Zn1 O2-O1 O2-C1 O2-C2 O2-C3 O2-H1 C1-Zn1 C1-O1 C1-O2 C1-C2 C1-C3 C1-H1 C2-Zn1 C2-O1 C2-O2 C2-C1 C2-C3 C2-H1 C3-Zn1 C3-O1 C3-O2 C3-C1 C3-C2 C3-H1 H1-Zn1 H1-O1 H1-O2 H1-C1 H1-C2 H1-C3  (maximum 50 interactions shown)


Mon Aug 22 22:15:10 2016
Simulation finished on Monday, August 22.
The end time was 10:15 PM.

